18
Coordinates from ORCA-job orca Relaxed Surface Scan Step 1
  C      -2.095218      1.079119      1.245264
  C      -1.109202      2.061135      1.316905
  C      -0.623298      2.493015      2.562877
  C      -1.155463      1.941648      3.724275
  C      -2.147334      0.966732      3.650286
  C      -2.610602      0.527612      2.414772
  H      -2.471502      0.763585      0.280742
  H      -3.378737     -0.232913      2.362490
  H      -0.759386      2.541790      0.406859
  H      -0.787811      2.270006      4.688885
  H      -2.553284      0.544583      4.560621
  C       0.543938      3.444503      2.606256
  N       1.798924      2.672926      2.336170
  H       2.165422      2.293747      3.205769
  H       2.520706      3.280576      1.959394
  H       0.606376      3.950699      3.569700
  H       0.451904      4.196449      1.823679
  Cu      1.244530      1.132676      1.179785
>
18
Coordinates from ORCA-job orca Relaxed Surface Scan Step 2
  C      -2.095936      1.078658      1.246711
  C      -1.109759      2.060208      1.318225
  C      -0.624556      2.492909      2.563719
  C      -1.157170      1.942742      3.725336
  C      -2.149255      0.967991      3.651755
  C      -2.612124      0.528183      2.416358
  H      -2.471596      0.762203      0.282230
  H      -3.380433     -0.232190      2.364163
  H      -0.757681      2.538588      0.407852
  H      -0.789923      2.271691      4.689915
  H      -2.555552      0.546640      4.562310
  C       0.542856      3.443762      2.606036
  N       1.797956      2.672779      2.334256
  H       2.160451      2.287078      3.202753
  H       2.521761      3.282956      1.965364
  H       0.606716      3.949383      3.569710
  H       0.450406      4.196191      1.823962
  Cu      1.263803      1.138118      1.164071
>
18
Coordinates from ORCA-job orca Relaxed Surface Scan Step 3
  C      -2.098267      1.078184      1.248224
  C      -1.111198      2.058521      1.318860
  C      -0.625335      2.491744      2.563366
  C      -1.157673      1.942925      3.725677
  C      -2.150688      0.969039      3.653354
  C      -2.614592      0.529030      2.418421
  H      -2.474292      0.761031      0.284104
  H      -3.383727     -0.230584      2.367061
  H      -0.757591      2.534623      0.407887
  H      -0.789796      2.272465      4.689833
  H      -2.557039      0.548695      4.564353
  C       0.541942      3.442421      2.604528
  N       1.798141      2.672875      2.334123
  H       2.153983      2.279542      3.202040
  H       2.524603      3.286956      1.976903
  H       0.605822      3.948879      3.567831
  H       0.449490      4.194205      1.821827
  Cu      1.286182      1.147338      1.146339
>
18
Coordinates from ORCA-job orca Relaxed Surface Scan Step 4
  C      -2.100252      1.077464      1.249861
  C      -1.112580      2.056933      1.319536
  C      -0.626036      2.490735      2.563038
  C      -1.158124      1.943324      3.726097
  C      -2.151944      0.970213      3.655097
  C      -2.616701      0.529711      2.420644
  H      -2.476504      0.759434      0.286110
  H      -3.386531     -0.229276      2.370160
  H      -0.757501      2.530705      0.407911
  H      -0.789806      2.273665      4.689831
  H      -2.558409      0.551057      4.566596
  C       0.540975      3.441336      2.602995
  N       1.797989      2.672709      2.334144
  H       2.146062      2.270397      3.201199
  H       2.527971      3.290132      1.989867
  H       0.604738      3.949010      3.565727
  H       0.448757      4.192150      1.819324
  Cu      1.307860      1.158190      1.126592
>
18
Coordinates from ORCA-job orca Relaxed Surface Scan Step 5
  C      -2.102100      1.076385      1.251678
  C      -1.114088      2.055292      1.320099
  C      -0.626737      2.489931      2.562483
  C      -1.158298      1.943994      3.726474
  C      -2.152774      0.971507      3.657078
  C      -2.618406      0.530148      2.423231
  H      -2.478630      0.757191      0.288417
  H      -3.388792     -0.228362      2.373868
  H      -0.758137      2.527005      0.407705
  H      -0.789511      2.275366      4.689693
  H      -2.559242      0.553730      4.569211
  C       0.540038      3.440363      2.600971
  N       1.797674      2.671928      2.335018
  H       2.135541      2.258501      3.200991
  H       2.532488      3.292485      2.006750
  H       0.603285      3.950486      3.562514
  H       0.448731      4.189315      1.815389
  Cu      1.328922      1.172624      1.103159
>
18
Coordinates from ORCA-job orca Relaxed Surface Scan Step 6
  C      -2.103314      1.074696      1.253552
  C      -1.114323      2.052344      1.321147
  C      -0.626971      2.488087      2.562665
  C      -1.159450      1.944548      3.727318
  C      -2.155276      0.973385      3.659086
  C      -2.621030      0.530976      2.425657
  H      -2.479474      0.754161      0.290584
  H      -3.392550     -0.226446      2.377056
  H      -0.756175      2.521207      0.408099
  H      -0.790800      2.277151      4.690181
  H      -2.562886      0.557712      4.571674
  C       0.539301      3.438795      2.600246
  N       1.797868      2.672355      2.333677
  H       2.128926      2.248797      3.197494
  H       2.535397      3.296773      2.018875
  H       0.602955      3.948719      3.561923
  H       0.447224      4.187951      1.814930
  Cu      1.350542      1.186678      1.080564
>
18
Coordinates from ORCA-job orca Relaxed Surface Scan Step 7
  C      -2.104277      1.072780      1.255467
  C      -1.114282      2.049146      1.322331
  C      -0.627172      2.486164      2.563042
  C      -1.160845      1.945190      3.728305
  C      -2.158068      0.975402      3.661135
  C      -2.623702      0.531786      2.428091
  H      -2.479883      0.750811      0.292754
  H      -3.396394     -0.224500      2.380187
  H      -0.753898      2.515142      0.408645
  H      -0.792504      2.279099      4.690848
  H      -2.567041      0.561997      4.574145
  C       0.538645      3.437131      2.599726
  N       1.798110      2.672790      2.332072
  H       2.122749      2.239080      3.193393
  H       2.538126      3.300924      2.030551
  H       0.602885      3.946639      3.561634
  H       0.445596      4.186677      1.814874
  Cu      1.371921      1.201630      1.057529
>
18
Coordinates from ORCA-job orca Relaxed Surface Scan Step 8
  C      -2.105368      1.070788      1.257373
  C      -1.114181      2.045687      1.323475
  C      -0.627246      2.483964      2.563367
  C      -1.162232      1.945661      3.729246
  C      -2.161022      0.977431      3.663162
  C      -2.626627      0.532667      2.430517
  H      -2.480507      0.747460      0.294924
  H      -3.400666     -0.222301      2.383319
  H      -0.751676      2.508813      0.409136
  H      -0.794160      2.280849      4.691461
  H      -2.571455      0.566425      4.576601
  C       0.538042      3.435318      2.599254
  N       1.798588      2.673399      2.330420
  H       2.117225      2.229845      3.189070
  H       2.540719      3.305237      2.041888
  H       0.602791      3.944239      3.561483
  H       0.443879      4.185390      1.815015
  Cu      1.393862      1.217017      1.035017
>
18
Coordinates from ORCA-job orca Relaxed Surface Scan Step 9
  C      -2.106759      1.068471      1.259363
  C      -1.113973      2.041512      1.324464
  C      -0.626955      2.481174      2.563389
  C      -1.163430      1.945907      3.730005
  C      -2.164097      0.979573      3.665278
  C      -2.629961      0.533622      2.433144
  H      -2.481697      0.743816      0.297276
  H      -3.405710     -0.219661      2.386831
  H      -0.749768      2.501771      0.409323
  H      -0.795540      2.282538      4.691799
  H      -2.576107      0.571338      4.579249
  C       0.537583      3.433205      2.598653
  N       1.799567      2.674181      2.329198
  H       2.111782      2.220305      3.184902
  H       2.543747      3.309957      2.054681
  H       0.602314      3.941682      3.561165
  H       0.442272      4.183694      1.814922
  Cu      1.416698      1.234802      1.011086
>
18
Coordinates from ORCA-job orca Relaxed Surface Scan Step 10
  C      -2.109167      1.066893      1.261174
  C      -1.114815      2.038155      1.324909
  C      -0.626897      2.478621      2.562753
  C      -1.163809      1.945656      3.730273
  C      -2.166227      0.981100      3.667209
  C      -2.633311      0.534632      2.435710
  H      -2.484656      0.741360      0.299586
  H      -3.410699     -0.217046      2.390497
  H      -0.749312      2.495633      0.408947
  H      -0.795331      2.283250      4.691518
  H      -2.578968      0.575055      4.581826
  C       0.536918      3.431318      2.597231
  N       1.800528      2.674658      2.329180
  H       2.105523      2.211379      3.182534
  H       2.546962      3.313764      2.068593
  H       0.600934      3.940489      3.559466
  H       0.441266      4.181253      1.812997
  Cu      1.441027      1.251718      0.990325
>
18
Coordinates from ORCA-job orca Relaxed Surface Scan Step 11
  C      -2.112288      1.065963      1.262784
  C      -1.116382      2.035517      1.325032
  C      -0.627058      2.476393      2.561724
  C      -1.163759      1.945121      3.730257
  C      -2.167693      0.982182      3.668965
  C      -2.636645      0.535711      2.438129
  H      -2.488730      0.739862      0.301753
  H      -3.415520     -0.214521      2.394139
  H      -0.749517      2.490112      0.408267
  H      -0.794214      2.283233      4.690926
  H      -2.580482      0.577757      4.584280
  C       0.536121      3.429640      2.595378
  N       1.801418      2.674954      2.329861
  H       2.099187      2.203382      3.181299
  H       2.550076      3.316799      2.082406
  H       0.598888      3.940169      3.557014
  H       0.440550      4.178548      1.810139
  Cu      1.466013      1.267065      0.972375
>
18
Coordinates from ORCA-job orca Relaxed Surface Scan Step 12
  C      -2.115793      1.065681      1.264204
  C      -1.118418      2.033596      1.324949
  C      -0.627607      2.474593      2.560619
  C      -1.163572      1.944491      3.730103
  C      -2.168743      0.982830      3.670527
  C      -2.639828      0.536795      2.440330
  H      -2.493532      0.739272      0.303772
  H      -3.419948     -0.212232      2.397471
  H      -0.750156      2.485515      0.407542
  H      -0.792638      2.282821      4.690179
  H      -2.581033      0.579351      4.586488
  C       0.535215      3.428058      2.593259
  N       1.802198      2.674940      2.330853
  H       2.093345      2.196798      3.180974
  H       2.552498      3.319447      2.095223
  H       0.596944      3.940271      3.554103
  H       0.440054      4.175628      1.806694
  Cu      1.490980      1.280032      0.957439
>
18
Coordinates from ORCA-job orca Relaxed Surface Scan Step 13
  C      -2.119501      1.065809      1.265493
  C      -1.120740      2.032185      1.324789
  C      -0.628381      2.473085      2.559517
  C      -1.163343      1.943805      3.729914
  C      -2.169557      0.983230      3.671961
  C      -2.642909      0.537894      2.442361
  H      -2.498641      0.739256      0.305646
  H      -3.424096     -0.210106      2.400584
  H      -0.750858      2.481438      0.406847
  H      -0.790873      2.282115      4.689421
  H      -2.581035      0.580276      4.588523
  C       0.534238      3.426597      2.591049
  N       1.802855      2.674850      2.331893
  H       2.087884      2.191075      3.180945
  H       2.554479      3.321791      2.107040
  H       0.594996      3.940605      3.551034
  H       0.439577      4.172754      1.803087
  Cu      1.515872      1.291228      0.944623
>
18
Coordinates from ORCA-job orca Relaxed Surface Scan Step 14
  C      -2.123355      1.066035      1.266745
  C      -1.123191      2.030865      1.324561
  C      -0.629159      2.471565      2.558345
  C      -1.163047      1.943049      3.729670
  C      -2.170303      0.983565      3.673359
  C      -2.646026      0.539011      2.444371
  H      -2.503979      0.739398      0.307500
  H      -3.428265     -0.207974      2.403697
  H      -0.751622      2.477452      0.406110
  H      -0.788968      2.281272      4.688602
  H      -2.580884      0.581069      4.590530
  C       0.533267      3.425126      2.588763
  N       1.803561      2.674782      2.332961
  H       2.082527      2.185560      3.180945
  H       2.556351      3.324117      2.118789
  H       0.592991      3.940959      3.547873
  H       0.439104      4.169853      1.799395
  Cu      1.540963      1.302184      0.932513
>
18
Coordinates from ORCA-job orca Relaxed Surface Scan Step 15
  C      -2.127274      1.066061      1.268052
  C      -1.125586      2.029229      1.324277
  C      -0.629723      2.469731      2.557056
  C      -1.162672      1.942211      3.729365
  C      -2.171156      0.984016      3.674812
  C      -2.649301      0.540154      2.446491
  H      -2.509439      0.739319      0.309443
  H      -3.432736     -0.205662      2.407005
  H      -0.752392      2.473123      0.405274
  H      -0.787008      2.280457      4.687690
  H      -2.580988      0.582240      4.592639
  C       0.532372      3.423522      2.586433
  N       1.804462      2.674844      2.334021
  H       2.077053      2.179627      3.180638
  H       2.558375      3.326660      2.131256
  H       0.590877      3.941113      3.544712
  H       0.438604      4.166874      1.795726
  Cu      1.566497      1.314367      0.919839
>
18
Coordinates from ORCA-job orca Relaxed Surface Scan Step 16
  C      -2.131058      1.065579      1.269502
  C      -1.127663      2.026900      1.324005
  C      -0.629911      2.467365      2.555697
  C      -1.162326      1.941367      3.729056
  C      -2.172356      0.984795      3.676403
  C      -2.652803      0.541322      2.448821
  H      -2.514699      0.738590      0.311558
  H      -3.437687     -0.203057      2.410622
  H      -0.752951      2.468010      0.404360
  H      -0.785261      2.279932      4.686739
  H      -2.581854      0.584316      4.594952
  C       0.531624      3.421677      2.584185
  N       1.805643      2.675112      2.334868
  H       2.071383      2.172712      3.179474
  H       2.560680      3.329588      2.144861
  H       0.588760      3.940724      3.541808
  H       0.437999      4.163899      1.792402
  Cu      1.592446      1.329055      0.905415
>
18
Coordinates from ORCA-job orca Relaxed Surface Scan Step 17
  C      -2.132770      1.063043      1.271443
  C      -1.127615      2.022369      1.324483
  C      -0.629583      2.464341      2.555251
  C      -1.163559      1.941795      3.729475
  C      -2.175544      0.987187      3.678504
  C      -2.656318      0.542313      2.451599
  H      -2.516517      0.734538      0.314057
  H      -3.442809     -0.200432      2.414423
  H      -0.751168      2.460324      0.404030
  H      -0.786520      2.282015      4.686594
  H      -2.586506      0.589728      4.597713
  C       0.531437      3.419184      2.583372
  N       1.807078      2.675455      2.333719
  H       2.065990      2.162366      3.174052
  H       2.563260      3.333009      2.159098
  H       0.588438      3.937519      3.541436
  H       0.436705      4.162148      1.792386
  Cu      1.615967      1.350986      0.883092
>
18
Coordinates from ORCA-job orca Relaxed Surface Scan Step 18
  C      -2.133742      1.059748      1.273577
  C      -1.126487      2.016721      1.325438
  C      -0.628822      2.460686      2.555347
  C      -1.165443      1.942408      3.730330
  C      -2.179767      0.990236      3.680759
  C      -2.660235      0.543508      2.454427
  H      -2.516877      0.729463      0.316557
  H      -3.448705     -0.197189      2.418172
  H      -0.747251      2.450670      0.404214
  H      -0.789068      2.284582      4.687027
  H      -2.593075      0.596511      4.600529
  C       0.531387      3.416424      2.583360
  N       1.808632      2.676448      2.331028
  H       2.061751      2.151492      3.165842
  H       2.565436      3.337364      2.172090
  H       0.588726      3.932550      3.542643
  H       0.434601      4.161320      1.794416
  Cu      1.638903      1.374946      0.858973
>
18
Coordinates from ORCA-job orca Relaxed Surface Scan Step 19
  C      -2.134827      1.056866      1.275593
  C      -1.125657      2.011665      1.326410
  C      -0.628288      2.457405      2.555513
  C      -1.167240      1.942939      3.731184
  C      -2.183699      0.992994      3.682860
  C      -2.663958      0.544661      2.457052
  H      -2.517398      0.724976      0.318901
  H      -3.454219     -0.194174      2.421592
  H      -0.743732      2.441752      0.404499
  H      -0.791393      2.286779      4.687503
  H      -2.599077      0.602595      4.603118
  C       0.531248      3.413875      2.583210
  N       1.809987      2.677380      2.328256
  H       2.057736      2.141548      3.157829
  H       2.567235      3.341288      2.184125
  H       0.589161      3.927949      3.543605
  H       0.432465      4.160560      1.796194
  Cu      1.661620      1.396829      0.837284
>
18
Coordinates from ORCA-job orca Relaxed Surface Scan Step 20
  C      -2.136373      1.054827      1.277377
  C      -1.125601      2.007788      1.327232
  C      -0.628181      2.454791      2.555573
  C      -1.168681      1.943248      3.731896
  C      -2.186882      0.995125      3.684708
  C      -2.667334      0.545721      2.459378
  H      -2.518678      0.721715      0.320998
  H      -3.459039     -0.191612      2.424642
  H      -0.741287      2.434442      0.404774
  H      -0.792971      2.288244      4.687864
  H      -2.603656      0.607228      4.605396
  C       0.530906      3.411717      2.582636
  N       1.810995      2.678074      2.325917
  H       2.053766      2.133102      3.151077
  H       2.568578      3.344459      2.195046
  H       0.589429      3.924421      3.543767
  H       0.430560      4.159615      1.796973
  Cu      1.684413      1.414983      0.819475
>
18
Coordinates from ORCA-job orca Relaxed Surface Scan Step 21
  C      -2.138398      1.053489      1.278967
  C      -1.126272      2.004890      1.327858
  C      -0.628425      2.452705      2.555457
  C      -1.169766      1.943356      3.732437
  C      -2.189390      0.996725      3.686359
  C      -2.670441      0.546697      2.461494
  H      -2.520757      0.719475      0.322918
  H      -3.463303     -0.189437      2.427478
  H      -0.739880      2.428502      0.404952
  H      -0.793805      2.289095      4.688051
  H      -2.606945      0.610647      4.607461
  C       0.530406      3.409855      2.581630
  N       1.811777      2.678520      2.324129
  H       2.049724      2.125788      3.145603
  H       2.569621      3.346993      2.205363
  H       0.589417      3.921865      3.543138
  H       0.428959      4.158383      1.796723
  Cu      1.707446      1.430339      0.804708
>
18
Coordinates from ORCA-job orca Relaxed Surface Scan Step 22
  C      -2.141180      1.052872      1.280374
  C      -1.127849      2.002898      1.328137
  C      -0.628931      2.450983      2.554933
  C      -1.170258      1.943113      3.732660
  C      -2.191073      0.997736      3.687837
  C      -2.673397      0.547626      2.463495
  H      -2.524123      0.718346      0.324728
  H      -3.467225     -0.187517      2.430318
  H      -0.739808      2.423866      0.404823
  H      -0.793494      2.289163      4.687859
  H      -2.608684      0.612837      4.609408
  C       0.529748      3.408231      2.579967
  N       1.812467      2.678716      2.323265
  H       2.045281      2.119397      3.141820
  H       2.570583      3.348943      2.215970
  H       0.588782      3.920530      3.541357
  H       0.427798      4.156570      1.794968
  Cu      1.731329      1.443577      0.792809
>
18
Coordinates from ORCA-job orca Relaxed Surface Scan Step 23
  C      -2.145436      1.053333      1.281526
  C      -1.130962      2.002098      1.327725
  C      -0.629640      2.449507      2.553510
  C      -1.169549      1.942094      3.732221
  C      -2.191380      0.997802      3.689081
  C      -2.676329      0.548546      2.465436
  H      -2.530032      0.719000      0.326467
  H      -3.471019     -0.185730      2.433426
  H      -0.742079      2.421023      0.403980
  H      -0.790976      2.287802      4.686846
  H      -2.607889      0.613231      4.611290
  C       0.528860      3.406877      2.577076
  N       1.813228      2.678642      2.324165
  H       2.039932      2.114221      3.140993
  H       2.571694      3.350298      2.228049
  H       0.586808      3.921236      3.537472
  H       0.427389      4.153556      1.790476
  Cu      1.757344      1.454352      0.784990
>
18
Coordinates from ORCA-job orca Relaxed Surface Scan Step 24
  C      -2.158476      1.059888      1.281337
  C      -1.142668      2.007429      1.323410
  C      -0.630900      2.448393      2.546833
  C      -1.161690      1.935890      3.727873
  C      -2.184248      0.992473      3.688942
  C      -2.679893      0.549772      2.467069
  H      -2.551009      0.730034      0.327934
  H      -3.475488     -0.183674      2.438112
  H      -0.757541      2.427447      0.398939
  H      -0.775506      2.277398      4.681009
  H      -2.593481      0.603833      4.612708
  C       0.526719      3.406552      2.567298
  N       1.815067      2.678027      2.334611
  H       2.030866      2.117629      3.157198
  H       2.573426      3.351280      2.248055
  H       0.577129      3.932268      3.522039
  H       0.430880      4.143539      1.771074
  Cu      1.796777      1.449712      0.800286
>
18
Coordinates from ORCA-job orca Relaxed Surface Scan Step 25
  C      -2.178494      1.070800      1.280478
  C      -1.160742      2.016646      1.315961
  C      -0.632360      2.447316      2.535594
  C      -1.147884      1.925662      3.719947
  C      -2.171036      0.983089      3.687634
  C      -2.684153      0.551405      2.468836
  H      -2.584177      0.748754      0.329902
  H      -3.480995     -0.180879      2.444692
  H      -0.783042      2.439587      0.390201
  H      -0.749314      2.260102      4.670573
  H      -2.567867      0.587148      4.613714
  C       0.523840      3.407040      2.551971
  N       1.817524      2.677590      2.353614
  H       2.016706      2.125673      3.186081
  H       2.576690      3.351295      2.277119
  H       0.560740      3.951961      3.496642
  H       0.438046      4.127581      1.739928
  Cu      1.846483      1.437118      0.831843
>
18
Coordinates from ORCA-job orca Relaxed Surface Scan Step 26
  C      -2.188569      1.074702      1.281110
  C      -1.169280      2.019062      1.312518
  C      -0.633309      2.446162      2.529869
  C      -1.141927      1.921716      3.716213
  C      -2.165754      0.979972      3.687966
  C      -2.687235      0.552527      2.471152
  H      -2.600612      0.755573      0.332279
  H      -3.485110     -0.178732      2.450031
  H      -0.795247      2.442365      0.385710
  H      -0.737293      2.253583      4.665221
  H      -2.556967      0.581730      4.615449
  C       0.522477      3.406192      2.543679
  N       1.818627      2.676268      2.362623
  H       2.005147      2.122482      3.196771
  H       2.578443      3.350857      2.300323
  H       0.553146      3.960256      3.483320
  H       0.441997      4.118691      1.724137
  Cu      1.881430      1.444483      0.836358
>
18
Coordinates from ORCA-job orca Relaxed Surface Scan Step 27
  C      -2.198510      1.078499      1.281824
  C      -1.177829      2.021559      1.308961
  C      -0.634313      2.445268      2.523937
  C      -1.135803      1.917931      3.712265
  C      -2.160131      0.976850      3.688240
  C      -2.689955      0.553451      2.473541
  H      -2.617059      0.762316      0.334846
  H      -3.488750     -0.176892      2.455535
  H      -0.808612      2.445910      0.380979
  H      -0.725146      2.247399      4.659565
  H      -2.545599      0.576362      4.617158
  C       0.521233      3.405461      2.535218
  N       1.819499      2.674760      2.372156
  H       1.992523      2.118310      3.207412
  H       2.580240      3.349630      2.324596
  H       0.545391      3.969022      3.469464
  H       0.446496      4.109562      1.708001
  Cu      1.916292      1.452490      0.841031
>
18
Coordinates from ORCA-job orca Relaxed Surface Scan Step 28
  C      -2.205973      1.080672      1.282848
  C      -1.184084      2.022544      1.306488
  C      -0.635221      2.444411      2.519525
  C      -1.131766      1.915695      3.709469
  C      -2.156585      0.975220      3.688925
  C      -2.692410      0.554228      2.475978
  H      -2.629228      0.766205      0.337383
  H      -3.491961     -0.175351      2.460524
  H      -0.818207      2.447070      0.377430
  H      -0.716795      2.243900      4.655360
  H      -2.537999      0.573651      4.619045
  C       0.520358      3.404559      2.528701
  N       1.820036      2.673279      2.378865
  H       1.980834      2.111536      3.212996
  H       2.581869      3.347923      2.346479
  H       0.539919      3.975127      3.458856
  H       0.449678      4.102679      1.696120
  Cu      1.947502      1.464538      0.839739
>
18
Coordinates from ORCA-job orca Relaxed Surface Scan Step 29
  C      -2.210582      1.081080      1.284077
  C      -1.187469      2.021666      1.305352
  C      -0.635978      2.443313      2.517152
  C      -1.130393      1.915017      3.708247
  C      -2.155894      0.975314      3.690056
  C      -2.694926      0.555080      2.478257
  H      -2.636315      0.767007      0.339585
  H      -3.495306     -0.173633      2.464555
  H      -0.822511      2.445057      0.375503
  H      -0.713076      2.242976      4.653208
  H      -2.535447      0.573919      4.621009
  C       0.519764      3.403241      2.524855
  N       1.820440      2.672108      2.381592
  H       1.972670      2.103669      3.212768
  H       2.582358      3.347292      2.363042
  H       0.537291      3.976985      3.453132
  H       0.450965      4.098707      1.689923
  Cu      1.974375      1.479090      0.832415
>
18
Coordinates from ORCA-job orca Relaxed Surface Scan Step 30
  C      -2.214493      1.081293      1.285320
  C      -1.190271      2.020703      1.304721
  C      -0.636918      2.442331      2.515567
  C      -1.129753      1.914591      3.707611
  C      -2.155940      0.975664      3.691263
  C      -2.697413      0.555925      2.480364
  H      -2.642013      0.767322      0.341593
  H      -3.498493     -0.172049      2.468052
  H      -0.825572      2.442778      0.374253
  H      -0.710639      2.242407      4.651839
  H      -2.534186      0.574574      4.622879
  C       0.519234      3.401783      2.521634
  N       1.820969      2.671102      2.383216
  H       1.965840      2.096123      3.211187
  H       2.582582      3.346936      2.377335
  H       0.535476      3.978032      3.448414
  H       0.451644      4.095039      1.684791
  Cu      1.999911      1.493336      0.824689
>
18
Coordinates from ORCA-job orca Relaxed Surface Scan Step 31
  C      -2.217205      1.080808      1.286625
  C      -1.192019      2.019166      1.304658
  C      -0.637893      2.441392      2.514849
  C      -1.130245      1.914840      3.707638
  C      -2.157135      0.976682      3.692641
  C      -2.699816      0.556694      2.482366
  H      -2.645533      0.766362      0.343416
  H      -3.501497     -0.170644      2.471068
  H      -0.826845      2.439577      0.373683
  H      -0.710188      2.242956      4.651349
  H      -2.534981      0.576407      4.624770
  C       0.518832      3.400216      2.519500
  N       1.821486      2.670194      2.383140
  H       1.960424      2.088161      3.207190
  H       2.582579      3.346681      2.389300
  H       0.534893      3.977474      3.445673
  H       0.451530      4.092619      1.681944
  Cu      2.023578      1.508302      0.814919
>
18
Coordinates from ORCA-job orca Relaxed Surface Scan Step 32
  C      -2.218923      1.079604      1.288028
  C      -1.192796      2.016909      1.305032
  C      -0.638760      2.440302      2.514778
  C      -1.131626      1.915626      3.708187
  C      -2.159346      0.978360      3.694215
  C      -2.702254      0.557454      2.484368
  H      -2.647277      0.764165      0.345156
  H      -3.504581     -0.169191      2.473831
  H      -0.826505      2.435236      0.373603
  H      -0.711337      2.244481      4.651539
  H      -2.537634      0.579501      4.626773
  C       0.518562      3.398499      2.518242
  N       1.822029      2.669383      2.381709
  H       1.955953      2.079388      3.200924
  H       2.582498      3.346419      2.399953
  H       0.535246      3.975537      3.444551
  H       0.450761      4.091165      1.680954
  Cu      2.045956      1.525049      0.802885
>
18
Coordinates from ORCA-job orca Relaxed Surface Scan Step 33
  C      -2.219666      1.077516      1.289580
  C      -1.192488      2.013623      1.305802
  C      -0.639363      2.438825      2.515266
  C      -1.133849      1.916913      3.709215
  C      -2.162672      0.980823      3.696040
  C      -2.704873      0.558280      2.486467
  H      -2.647298      0.760525      0.346895
  H      -3.508039     -0.167455      2.476504
  H      -0.824357      2.429274      0.373931
  H      -0.714053      2.247043      4.652337
  H      -2.542354      0.584191      4.628983
  C       0.518462      3.396536      2.517859
  N       1.822690      2.668710      2.378955
  H       1.952270      2.069390      3.192105
  H       2.582463      3.346125      2.409932
  H       0.536447      3.972070      3.445077