18
Properties=species:S:1:pos:R:3 Coordinates=T from=T ORCA-job=T orca=T energy=-1967.196234766356 pbc="F F F"
C       -2.09521804       1.07911853       1.24526449
C       -1.10920193       2.06113529       1.31690470
C       -0.62329762       2.49301476       2.56287725
C       -1.15546289       1.94164821       3.72427518
C       -2.14733377       0.96673246       3.65028614
C       -2.61060195       0.52761171       2.41477220
H       -2.47150164       0.76358499       0.28074157
H       -3.37873660      -0.23291314       2.36248977
H       -0.75938615       2.54179020       0.40685938
H       -0.78781110       2.27000625       4.68888457
H       -2.55328352       0.54458333       4.56062051
C        0.54393779       3.44450250       2.60625591
N        1.79892410       2.67292595       2.33616957
H        2.16542209       2.29374701       3.20576912
H        2.52070569       3.28057566       1.95939431
H        0.60637597       3.95069932       3.56969999
H        0.45190449       4.19644901       1.82367905
Cu       1.24453050       1.13267597       1.17978457
18
Properties=species:S:1:pos:R:3 Coordinates=T from=T ORCA-job=T orca=T energy=-1967.196230257039 pbc="F F F"
C       -2.09593598       1.07865774       1.24671066
C       -1.10975915       2.06020769       1.31822505
C       -0.62455563       2.49290873       2.56371946
C       -1.15717031       1.94274245       3.72533640
C       -2.14925476       0.96799054       3.65175535
C       -2.61212388       0.52818299       2.41635804
H       -2.47159558       0.76220326       0.28223020
H       -3.38043274      -0.23219012       2.36416253
H       -0.75768149       2.53858779       0.40785232
H       -0.78992300       2.27169118       4.68991506
H       -2.55555180       0.54663972       4.56231018
C        0.54285628       3.44376215       2.60603641
N        1.79795597       2.67277859       2.33425570
H        2.16045107       2.28707752       3.20275313
H        2.52176133       3.28295575       1.96536365
H        0.60671614       3.94938302       3.56971042
H        0.45040630       4.19619074       1.82396226
Cu       1.26380266       1.13811828       1.16407146
18
Properties=species:S:1:pos:R:3 Coordinates=T from=T ORCA-job=T orca=T energy=-1967.196218256316 pbc="F F F"
C       -2.09826729       1.07818427       1.24822417
C       -1.11119803       2.05852115       1.31885971
C       -0.62533524       2.49174381       2.56336626
C       -1.15767308       1.94292486       3.72567653
C       -2.15068765       0.96903854       3.65335391
C       -2.61459151       0.52903024       2.41842060
H       -2.47429204       0.76103103       0.28410365
H       -3.38372656      -0.23058444       2.36706057
H       -0.75759137       2.53462276       0.40788675
H       -0.78979575       2.27246529       4.68983257
H       -2.55703929       0.54869459       4.56435259
C        0.54194245       3.44242135       2.60452820
N        1.79814121       2.67287462       2.33412261
H        2.15398257       2.27954216       3.20204012
H        2.52460310       3.28695560       1.97690281
H        0.60582208       3.94887907       3.56783132
H        0.44949025       4.19420496       1.82182669
Cu       1.28618156       1.14733814       1.14633922
18
Properties=species:S:1:pos:R:3 Coordinates=T from=T ORCA-job=T orca=T energy=-1967.19620069078 pbc="F F F"
C       -2.10025202       1.07746435       1.24986088
C       -1.11257969       2.05693267       1.31953640
C       -0.62603625       2.49073487       2.56303787
C       -1.15812382       1.94332359       3.72609704
C       -2.15194367       0.97021310       3.65509717
C       -2.61670108       0.52971051       2.42064351
H       -2.47650384       0.75943370       0.28610965
H       -3.38653136      -0.22927594       2.37016019
H       -0.75750109       2.53070474       0.40791128
H       -0.78980598       2.27366530       4.68983073
H       -2.55840899       0.55105747       4.56659607
C        0.54097543       3.44133626       2.60299478
N        1.79798918       2.67270855       2.33414427
H        2.14606195       2.27039691       3.20119911
H        2.52797080       3.29013217       1.98986660
H        0.60473813       3.94900991       3.56572668
H        0.44875747       4.19215024       1.81932388
Cu       1.30786024       1.15818960       1.12659218
18
Properties=species:S:1:pos:R:3 Coordinates=T from=T ORCA-job=T orca=T energy=-1967.196180121483 pbc="F F F"
C       -2.10209968       1.07638495       1.25167822
C       -1.11408756       2.05529187       1.32009861
C       -0.62673699       2.48993085       2.56248314
C       -1.15829818       1.94399438       3.72647376
C       -2.15277440       0.97150731       3.65707822
C       -2.61840638       0.53014838       2.42323131
H       -2.47863015       0.75719122       0.28841747
H       -3.38879189      -0.22836244       2.37386771
H       -0.75813717       2.52700533       0.40770500
H       -0.78951073       2.27536557       4.68969286
H       -2.55924199       0.55372991       4.56921131
C        0.54003831       3.44036293       2.60097050
N        1.79767381       2.67192752       2.33501767
H        2.13554131       2.25850060       3.20099077
H        2.53248842       3.29248482       2.00675012
H        0.60328515       3.95048621       3.56251385
H        0.44873147       4.18931502       1.81538913
Cu       1.32892210       1.17262359       1.10315864
18
Properties=species:S:1:pos:R:3 Coordinates=T from=T ORCA-job=T orca=T energy=-1967.196157904165 pbc="F F F"
C       -2.10331380       1.07469562       1.25355172
C       -1.11432256       2.05234415       1.32114733
C       -0.62697149       2.48808742       2.56266478
C       -1.15944975       1.94454798       3.72731757
C       -2.15527602       0.97338454       3.65908597
C       -2.62103004       0.53097551       2.42565721
H       -2.47947361       0.75416077       0.29058441
H       -3.39255012      -0.22644594       2.37705596
H       -0.75617489       2.52120703       0.40809908
H       -0.79079957       2.27715146       4.69018117
H       -2.56288552       0.55771160       4.57167363
C        0.53930073       3.43879513       2.60024631
N        1.79786761       2.67235466       2.33367745
H        2.12892648       2.24879719       3.19749364
H        2.53539666       3.29677288       2.01887461
H        0.60295519       3.94871877       3.56192338
H        0.44722390       4.18795140       1.81492964
Cu       1.35054224       1.18667785       1.08056443
18
Properties=species:S:1:pos:R:3 Coordinates=T from=T ORCA-job=T orca=T energy=-1967.196133655702 pbc="F F F"
C       -2.10427749       1.07277967       1.25546711
C       -1.11428216       2.04914579       1.32233145
C       -0.62717230       2.48616356       2.56304157
C       -1.16084476       1.94518990       3.72830453
C       -2.15806807       0.97540243       3.66113517
C       -2.62370211       0.53178632       2.42809069
H       -2.47988258       0.75081116       0.29275380
H       -3.39639449      -0.22449968       2.38018711
H       -0.75389783       2.51514217       0.40864498
H       -0.79250424       2.27909877       4.69084844
H       -2.56704121       0.56199715       4.57414514
C        0.53864472       3.43713060       2.59972586
N        1.79810986       2.67279022       2.33207240
H        2.12274924       2.23908039       3.19339256
H        2.53812647       3.30092376       2.03055102
H        0.60288547       3.94663861       3.56163399
H        0.44559609       4.18667737       1.81487368
Cu       1.37192079       1.20162981       1.05752880
18
Properties=species:S:1:pos:R:3 Coordinates=T from=T ORCA-job=T orca=T energy=-1967.196107385271 pbc="F F F"
C       -2.10536794       1.07078777       1.25737265
C       -1.11418108       2.04568730       1.32347549
C       -0.62724617       2.48396437       2.56336714
C       -1.16223164       1.94566123       3.72924556
C       -2.16102217       0.97743130       3.66316238
C       -2.62662652       0.53266680       2.43051707
H       -2.48050656       0.74745995       0.29492418
H       -3.40066622      -0.22230090       2.38331866
H       -0.75167618       2.50881252       0.40913595
H       -0.79415983       2.28084889       4.69146062
H       -2.57145517       0.56642504       4.57660136
C        0.53804227       3.43531781       2.59925445
N        1.79858778       2.67339878       2.33042004
H        2.11722458       2.22984461       3.18906965
H        2.54071869       3.30523730       2.04188784
H        0.60279111       3.94423891       3.56148319
H        0.44387854       4.18538975       1.81501503
Cu       1.39386195       1.21701657       1.03501702
18
Properties=species:S:1:pos:R:3 Coordinates=T from=T ORCA-job=T orca=T energy=-1967.196079982688 pbc="F F F"
C       -2.10675943       1.06847132       1.25936288
C       -1.11397323       2.04151226       1.32446397
C       -0.62695521       2.48117433       2.56338928
C       -1.16342970       1.94590696       3.73000477
C       -2.16409735       0.97957309       3.66527827
C       -2.62996071       0.53362175       2.43314376
H       -2.48169686       0.74381578       0.29727552
H       -3.40570985      -0.21966082       2.38683134
H       -0.74976782       2.50177074       0.40932312
H       -0.79554029       2.28253814       4.69179887
H       -2.57610679       0.57133813       4.57924944
C        0.53758284       3.43320540       2.59865257
N        1.79956689       2.67418088       2.32919844
H        2.11178233       2.22030455       3.18490231
H        2.54374701       3.30995676       2.05468128
H        0.60231395       3.94168218       3.56116485
H        0.44227166       4.18369442       1.81492201
Cu       1.41669797       1.23480211       1.01108560
18
Properties=species:S:1:pos:R:3 Coordinates=T from=T ORCA-job=T orca=T energy=-1967.196052144339 pbc="F F F"
C       -2.10916691       1.06689293       1.26117372
C       -1.11481502       2.03815461       1.32490943
C       -0.62689692       2.47862064       2.56275307
C       -1.16380878       1.94565631       3.73027328
C       -2.16622666       0.98109973       3.66720941
C       -2.63331124       0.53463214       2.43570967
H       -2.48465628       0.74136014       0.29958557
H       -3.41069945      -0.21704551       2.39049710
H       -0.74931246       2.49563273       0.40894696
H       -0.79533088       2.28325045       4.69151829
H       -2.57896845       0.57505532       4.58182569
C        0.53691769       3.43131752       2.59723057
N        1.80052797       2.67465809       2.32917967
H        2.10552286       2.21137923       3.18253400
H        2.54696249       3.31376438       2.06859333
H        0.60093439       3.94048865       3.55946568
H        0.44126613       4.18125300       1.81299742
Cu       1.44102696       1.25171765       0.99032542
18
Properties=species:S:1:pos:R:3 Coordinates=T from=T ORCA-job=T orca=T energy=-1967.196022702343 pbc="F F F"
C       -2.11228836       1.06596344       1.26278420
C       -1.11638250       2.03551682       1.32503208
C       -0.62705779       2.47639340       2.56172409
C       -1.16375889       1.94512100       3.73025664
C       -2.16769284       0.98218216       3.66896493
C       -2.63664450       0.53571068       2.43812915
H       -2.48872985       0.73986200       0.30175313
H       -3.41551979      -0.21452121       2.39413885
H       -0.74951695       2.49011199       0.40826707
H       -0.79421396       2.28323321       4.69092648
H       -2.58048202       0.57775676       4.58427994
C        0.53612099       3.42964035       2.59537816
N        1.80141800       2.67495408       2.32986073
H        2.09918669       2.20338161       3.18129911
H        2.55007641       3.31679874       2.08240604
H        0.59888776       3.94016943       3.55701427
H        0.44055045       4.17854808       1.81013868
Cu       1.46601257       1.26706548       0.97237473
18
Properties=species:S:1:pos:R:3 Coordinates=T from=T ORCA-job=T orca=T energy=-1967.195989256933 pbc="F F F"
C       -2.11579344       1.06568093       1.26420425
C       -1.11841783       2.03359625       1.32494877
C       -0.62760658       2.47459258       2.56061882
C       -1.16357214       1.94449052       3.73010302
C       -2.16874268       0.98283015       3.67052728
C       -2.63982767       0.53679539       2.44032977
H       -2.49353221       0.73927168       0.30377193
H       -3.41994780      -0.21223153       2.39747108
H       -0.75015598       2.48551482       0.40754175
H       -0.79263799       2.28282094       4.69017863
H       -2.58103260       0.57935092       4.58648795
C        0.53521455       3.42805797       2.59325888
N        1.80219759       2.67494046       2.33085310
H        2.09334477       2.19679835       3.18097363
H        2.55249751       3.31944723       2.09522256
H        0.59694369       3.94027148       3.55410319
H        0.44005409       4.17562794       1.80669430
Cu       1.49098016       1.28003196       0.95743937
18
Properties=species:S:1:pos:R:3 Coordinates=T from=T ORCA-job=T orca=T energy=-1967.195949597536 pbc="F F F"
C       -2.11950139       1.06580943       1.26549333
C       -1.12073986       2.03218503       1.32478881
C       -0.62838140       2.47308506       2.55951691
C       -1.16334344       1.94380505       3.72991434
C       -2.16955708       0.98322992       3.67196081
C       -2.64290919       0.53789362       2.44236135
H       -2.49864110       0.73925650       0.30564649
H       -3.42409621      -0.21010614       2.40058393
H       -0.75085844       2.48143818       0.40684722
H       -0.79087309       2.28211514       4.68942144
H       -2.58103506       0.58027647       4.58852272
C        0.53423765       3.42659682       2.59104935
N        1.80285526       2.67484974       2.33189265
H        2.08788429       2.19107531       3.18094508
H        2.55447936       3.32179071       2.10703968
H        0.59499632       3.94060490       3.55103406
H        0.43957712       4.17275387       1.80308725
Cu       1.51587169       1.29122841       0.94462287
18
Properties=species:S:1:pos:R:3 Coordinates=T from=T ORCA-job=T orca=T energy=-1967.195903148161 pbc="F F F"
C       -2.12335478       1.06603537       1.26674505
C       -1.12319056       2.03086471       1.32456057
C       -0.62915851       2.47156476       2.55834496
C       -1.16304668       1.94304894       3.72967020
C       -2.17030343       0.98356549       3.67335918
C       -2.64602568       0.53901052       2.44437101
H       -2.50397881       0.73939850       0.30750012
H       -3.42826463      -0.20797417       2.40369658
H       -0.75162154       2.47745240       0.40611033
H       -0.78896847       2.28127210       4.68860234
H       -2.58088437       0.58106867       4.59052975
C        0.53326674       3.42512608       2.58876324
N        1.80356085       2.67478168       2.33296053
H        2.08252728       2.18555954       3.18094529
H        2.55635069       3.32411719       2.11878935
H        0.59299067       3.94095859       3.54787262
H        0.43910352       4.16985321       1.79939456
Cu       1.54096313       1.30218442       0.93251260
18
Properties=species:S:1:pos:R:3 Coordinates=T from=T ORCA-job=T orca=T energy=-1967.195850941436 pbc="F F F"
C       -2.12727403       1.06606120       1.26805204
C       -1.12558627       2.02922945       1.32427669
C       -0.62972300       2.46973146       2.55705562
C       -1.16267198       1.94221129       3.72936523
C       -2.17115621       0.98401598       3.67481151
C       -2.64930060       0.54015434       2.44649134
H       -2.50943859       0.73931924       0.30944325
H       -3.43273611      -0.20566204       2.40700518
H       -0.75239241       2.47312252       0.40527381
H       -0.78700759       2.28045692       4.68768983
H       -2.58098753       0.58223970       4.59263946
C        0.53237173       3.42352246       2.58643280
N        1.80446191       2.67484381       2.33402051
H        2.07705272       2.17962678       3.18063807
H        2.55837468       3.32666041       2.13125591
H        0.59087744       3.94111321       3.54471249
H        0.43860429       4.16687438       1.79572593
Cu       1.56649698       1.31436689       0.91983861
18
Properties=species:S:1:pos:R:3 Coordinates=T from=T ORCA-job=T orca=T energy=-1967.195795294066 pbc="F F F"
C       -2.13105764       1.06557905       1.26950201
C       -1.12766315       2.02690026       1.32400537
C       -0.62991114       2.46736540       2.55569655
C       -1.16232587       1.94136698       3.72905642
C       -2.17235597       0.98479518       3.67640287
C       -2.65280292       0.54132209       2.44882146
H       -2.51469886       0.73859030       0.31155760
H       -3.43768713      -0.20305701       2.41062206
H       -0.75295064       2.46801041       0.40435991
H       -0.78526086       2.27993223       4.68673859
H       -2.58185444       0.58431620       4.59495237
C        0.53162395       3.42167748       2.58418503
N        1.80564259       2.67511158       2.33486755
H        2.07138264       2.17271187       3.17947363
H        2.56068030       3.32958773       2.14486137
H        0.58875990       3.94072407       3.54180778
H        0.43799897       4.16389935       1.79240235
Cu       1.59244569       1.32905483       0.90541537
18
Properties=species:S:1:pos:R:3 Coordinates=T from=T ORCA-job=T orca=T energy=-1967.195739296808 pbc="F F F"
C       -2.13277038       1.06304316       1.27144346
C       -1.12761467       2.02236870       1.32448305
C       -0.62958295       2.46434145       2.55525070
C       -1.16355891       1.94179473       3.72947467
C       -2.17554369       0.98718721       3.67850379
C       -2.65631834       0.54231340       2.45159924
H       -2.51651702       0.73453753       0.31405695
H       -3.44280883      -0.20043174       2.41442274
H       -0.75116796       2.46032411       0.40402998
H       -0.78651982       2.28201516       4.68659446
H       -2.58650642       0.58972769       4.59771345
C        0.53143700       3.41918365       2.58337181
N        1.80707779       2.67545545       2.33371888
H        2.06599035       2.16236619       3.17405244
H        2.56325959       3.33300894       2.15909837
H        0.58843808       3.93751877       3.54143583
H        0.43670480       4.16214800       1.79238625
Cu       1.61596682       1.35098560       0.88309223
18
Properties=species:S:1:pos:R:3 Coordinates=T from=T ORCA-job=T orca=T energy=-1967.195683997871 pbc="F F F"
C       -2.13374201       1.05974783       1.27357660
C       -1.12648713       2.01672141       1.32543769
C       -0.62882154       2.46068596       2.55534662
C       -1.16544330       1.94240806       3.73033030
C       -2.17976668       0.99023555       3.68075896
C       -2.66023456       0.54350841       2.45442693
H       -2.51687674       0.72946251       0.31655681
H       -3.44870536      -0.19718924       2.41817181
H       -0.74725095       2.45067018       0.40421402
H       -0.78906834       2.28458167       4.68702725
H       -2.59307480       0.59651095       4.60052859
C        0.53138747       3.41642410       2.58336034
N        1.80863227       2.67644837       2.33102813
H        2.06175087       2.15149236       3.16584186
H        2.56543642       3.33736385       2.17209009
H        0.58872584       3.93255008       3.54264337
H        0.43460131       4.16131993       1.79441630
Cu       1.63890265       1.37494603       0.85897262
18
Properties=species:S:1:pos:R:3 Coordinates=T from=T ORCA-job=T orca=T energy=-1967.195629018732 pbc="F F F"
C       -2.13482693       1.05686608       1.27559275
C       -1.12565750       2.01166544       1.32641022
C       -0.62828756       2.45740531       2.55551278
C       -1.16723979       1.94293934       3.73118384
C       -2.18369872       0.99299375       3.68285967
C       -2.66395769       0.54466123       2.45705191
H       -2.51739762       0.72497632       0.31890071
H       -3.45421887      -0.19417377       2.42159214
H       -0.74373229       2.44175211       0.40449864
H       -0.79139317       2.28677859       4.68750335
H       -2.59907670       0.60259514       4.60311815
C        0.53124826       3.41387457       2.58321008
N        1.80998672       2.67738040       2.32825640
H        2.05773629       2.14154837       3.15782915
H        2.56723545       3.34128760       2.18412530
H        0.58916062       3.92794868       3.54360507
H        0.43246515       4.16055992       1.79619440
Cu       1.66161980       1.39682892       0.83728374
18
Properties=species:S:1:pos:R:3 Coordinates=T from=T ORCA-job=T orca=T energy=-1967.195572652135 pbc="F F F"
C       -2.13637294       1.05482688       1.27737684
C       -1.12560102       2.00778828       1.32723179
C       -0.62818053       2.45479139       2.55557294
C       -1.16868092       1.94324796       3.73189599
C       -2.18688232       0.99512520       3.68470771
C       -2.66733391       0.54572079       2.45937770
H       -2.51867833       0.72171513       0.32099826
H       -3.45903929      -0.19161206       2.42464196
H       -0.74128680       2.43444151       0.40477374
H       -0.79297087       2.28824423       4.68786442
H       -2.60365551       0.60722763       4.60539581
C        0.53090608       3.41171744       2.58263631
N        1.81099535       2.67807375       2.32591720
H        2.05376574       2.13310234       3.15107731
H        2.56857812       3.34445942       2.19504570
H        0.58942929       3.92442081       3.54376735
H        0.43056018       4.15961468       1.79697264
Cu       1.68441311       1.41498262       0.81947463
18
Properties=species:S:1:pos:R:3 Coordinates=T from=T ORCA-job=T orca=T energy=-1967.19551330977 pbc="F F F"
C       -2.13839830       1.05348922       1.27896733
C       -1.12627194       2.00488994       1.32785784
C       -0.62842535       2.45270455       2.55545713
C       -1.16976618       1.94335616       3.73243725
C       -2.18939030       0.99672484       3.68635928
C       -2.67044108       0.54669741       2.46149432
H       -2.52075694       0.71947460       0.32291755
H       -3.46330320      -0.18943664       2.42747815
H       -0.73987984       2.42850183       0.40495229
H       -0.79380549       2.28909458       4.68805140
H       -2.60694505       0.61064742       4.60746064
C        0.53040558       3.40985485       2.58163042
N        1.81177671       2.67851974       2.32412908
H        2.04972410       2.12578847       3.14560341
H        2.56962059       3.34699321       2.20536289
H        0.58941709       3.92186520       3.54313813
H        0.42895898       4.15838343       1.79672325
Cu       1.70744608       1.43033921       0.80470793
18
Properties=species:S:1:pos:R:3 Coordinates=T from=T ORCA-job=T orca=T energy=-1967.195450461507 pbc="F F F"
C       -2.14117952       1.05287213       1.28037362
C       -1.12784884       2.00289813       1.32813699
C       -0.62893055       2.45098251       2.55493299
C       -1.17025846       1.94311334       3.73266013
C       -2.19107316       0.99773603       3.68783730
C       -2.67339713       0.54762578       2.46349466
H       -2.52412306       0.71834637       0.32472758
H       -3.46722537      -0.18751704       2.43031836
H       -0.73980763       2.42386610       0.40482343
H       -0.79349389       2.28916302       4.68785850
H       -2.60868420       0.61283682       4.60940796
C        0.52974778       3.40823147       2.57996730
N        1.81246737       2.67871556       2.32326545
H        2.04528058       2.11939718       3.14181968
H        2.57058255       3.34894291       2.21597029
H        0.58878218       3.92053018       3.54135684
H        0.42779803       4.15657030       1.79496779
Cu       1.73132875       1.44357723       0.79280939
18
Properties=species:S:1:pos:R:3 Coordinates=T from=T ORCA-job=T orca=T energy=-1967.195385231437 pbc="F F F"
C       -2.14543558       1.05333292       1.28152649
C       -1.13096233       2.00209830       1.32772452
C       -0.62963963       2.44950697       2.55351008
C       -1.16954870       1.94209413       3.73222104
C       -2.19138033       0.99780217       3.68908145
C       -2.67632859       0.54854597       2.46543558
H       -2.53003223       0.71900036       0.32646651
H       -3.47101856      -0.18573022       2.43342650
H       -0.74207897       2.42102280       0.40397990
H       -0.79097584       2.28780235       4.68684564
H       -2.60788866       0.61323095       4.61128967
C        0.52886021       3.40687659       2.57707623
N        1.81322766       2.67864221       2.32416504
H        2.03993187       2.11422087       3.14099295
H        2.57169433       3.35029765       2.22804901
H        0.58680789       3.92123594       3.53747203
H        0.42738870       4.15355628       1.79047567
Cu       1.75734418       1.45435176       0.78498997
18
Properties=species:S:1:pos:R:3 Coordinates=T from=T ORCA-job=T orca=T energy=-1967.195327670402 pbc="F F F"
C       -2.15847641       1.05988776       1.28133693
C       -1.14266775       2.00742863       1.32341039
C       -0.63090025       2.44839276       2.54683349
C       -1.16169011       1.93588972       3.72787287
C       -2.18424782       0.99247256       3.68894218
C       -2.67989313       0.54977211       2.46706939
H       -2.55100851       0.73003426       0.32793357
H       -3.47548777      -0.18367440       2.43811235
H       -0.75754076       2.42744670       0.39893890
H       -0.77550581       2.27739759       4.68100937
H       -2.59348070       0.60383331       4.61270818
C        0.52671941       3.40655244       2.56729840
N        1.81506727       2.67802681       2.33461100
H        2.03086631       2.11762907       3.15719797
H        2.57342600       3.35127989       2.24805483
H        0.57712854       3.93226815       3.52203877
H        0.43088020       4.14353894       1.77107414
Cu       1.79677671       1.44971170       0.80028555
18
Properties=species:S:1:pos:R:3 Coordinates=T from=T ORCA-job=T orca=T energy=-1967.195289743241 pbc="F F F"
C       -2.17849423       1.07079977       1.28047766
C       -1.16074207       2.01664628       1.31596117
C       -0.63235961       2.44731581       2.53559367
C       -1.14788381       1.92566208       3.71994719
C       -2.17103640       0.98308949       3.68763403
C       -2.68415330       0.55140479       2.46883632
H       -2.58417748       0.74875450       0.32990195
H       -3.48099492      -0.18087888       2.44469246
H       -0.78304157       2.43958735       0.39020061
H       -0.74931392       2.26010216       4.67057301
H       -2.56786697       0.58714757       4.61371396
C        0.52384001       3.40703955       2.55197080
N        1.81752388       2.67759010       2.35361408
H        2.01670626       2.12567259       3.18608060
H        2.57668996       3.35129523       2.27711857
H        0.56074048       3.95196084       3.49664172
H        0.43804589       4.12758072       1.73992790
Cu       1.84648323       1.43711806       0.83184258
18
Properties=species:S:1:pos:R:3 Coordinates=T from=T ORCA-job=T orca=T energy=-1967.195240735946 pbc="F F F"
C       -2.18856922       1.07470160       1.28110989
C       -1.16928016       2.01906213       1.31251846
C       -0.63330866       2.44616162       2.52986922
C       -1.14192660       1.92171571       3.71621286
C       -2.16575449       0.97997223       3.68796609
C       -2.68723471       0.55252660       2.47115233
H       -2.60061207       0.75557277       0.33227894
H       -3.48511029      -0.17873212       2.45003054
H       -0.79524657       2.44236463       0.38570992
H       -0.73729262       2.25358320       4.66522093
H       -2.55696677       0.58172966       4.61544867
C        0.52247721       3.40619199       2.54367859
N        1.81862746       2.67626838       2.36262256
H        2.00514675       2.12248230       3.19677089
H        2.57844326       3.35085672       2.30032332
H        0.55314640       3.96025627       3.48332007
H        0.44199660       4.11869122       1.72413668
Cu       1.88142990       1.44448309       0.83635833
18
Properties=species:S:1:pos:R:3 Coordinates=T from=T ORCA-job=T orca=T energy=-1967.19518615961 pbc="F F F"
C       -2.19850996       1.07849940       1.28182381
C       -1.17782918       2.02155918       1.30896108
C       -0.63431287       2.44526791       2.52393703
C       -1.13580337       1.91793091       3.71226486
C       -2.16013077       0.97684990       3.68824029
C       -2.68995541       0.55345109       2.47354074
H       -2.61705894       0.76231558       0.33484638
H       -3.48875018      -0.17689246       2.45553516
H       -0.80861229       2.44590998       0.38097878
H       -0.72514625       2.24739914       4.65956472
H       -2.54559918       0.57636246       4.61715759
C        0.52123255       3.40546060       2.53521800
N        1.81949872       2.67475966       2.37215593
H        1.99252296       2.11830995       3.20741223
H        2.58023955       3.34963026       2.32459641
H        0.54539114       3.96902244       3.46946385
H        0.44649640       4.10956205       1.70800058
Cu       1.91629250       1.45248996       0.84103084
18
Properties=species:S:1:pos:R:3 Coordinates=T from=T ORCA-job=T orca=T energy=-1967.195123901438 pbc="F F F"
C       -2.20597284       1.08067215       1.28284762
C       -1.18408447       2.02254447       1.30648772
C       -0.63522065       2.44441052       2.51952473
C       -1.13176647       1.91569529       3.70946852
C       -2.15658533       0.97521992       3.68892491
C       -2.69240989       0.55422774       2.47597838
H       -2.62922786       0.76620539       0.33738262
H       -3.49196097      -0.17535067       2.46052406
H       -0.81820686       2.44706966       0.37743007
H       -0.71679546       2.24390009       4.65535955
H       -2.53799877       0.57365064       4.61904459
C        0.52035782       3.40455938       2.52870067