
                                 *****************
                                 * O   R   C   A *
                                 *****************

                                            #,                                       
                                            ###                                      
                                            ####                                     
                                            #####                                    
                                            ######                                   
                                           ########,                                 
                                     ,,################,,,,,                         
                               ,,#################################,,                 
                          ,,##########################################,,             
                       ,#########################################, ''#####,          
                    ,#############################################,,   '####,        
                  ,##################################################,,,,####,       
                ,###########''''           ''''###############################       
              ,#####''   ,,,,##########,,,,          '''####'''          '####       
            ,##' ,,,,###########################,,,                        '##       
           ' ,,###''''                  '''############,,,                           
         ,,##''                                '''############,,,,        ,,,,,,###''
      ,#''                                            '''#######################'''  
     '                                                          ''''####''''         
             ,#######,   #######,   ,#######,      ##                                
            ,#'     '#,  ##    ##  ,#'     '#,    #''#        ######   ,####,        
            ##       ##  ##   ,#'  ##            #'  '#       #        #'  '#        
            ##       ##  #######   ##           ,######,      #####,   #    #        
            '#,     ,#'  ##    ##  '#,     ,#' ,#      #,         ##   #,  ,#        
             '#######'   ##     ##  '#######'  #'      '#     #####' # '####'        



                  #######################################################
                  #                        -***-                        #
                  #          Department of theory and spectroscopy      #
                  #    Directorship and core code : Frank Neese         #
                  #        Max Planck Institute fuer Kohlenforschung    #
                  #                Kaiser Wilhelm Platz 1               #
                  #                 D-45470 Muelheim/Ruhr               #
                  #                      Germany                        #
                  #                                                     #
                  #                  All rights reserved                #
                  #                        -***-                        #
                  #######################################################


                         Program Version 5.0.3 -  RELEASE  -


 With contributions from (in alphabetic order):
   Daniel Aravena         : Magnetic Suceptibility
   Michael Atanasov       : Ab Initio Ligand Field Theory (pilot matlab implementation)
   Alexander A. Auer      : GIAO ZORA, VPT2 properties, NMR spectrum
   Ute Becker             : Parallelization
   Giovanni Bistoni       : ED, misc. LED, open-shell LED, HFLD
   Martin Brehm           : Molecular dynamics
   Dmytro Bykov           : SCF Hessian
   Vijay G. Chilkuri      : MRCI spin determinant printing, contributions to CSF-ICE
   Dipayan Datta          : RHF DLPNO-CCSD density
   Achintya Kumar Dutta   : EOM-CC, STEOM-CC
   Dmitry Ganyushin       : Spin-Orbit,Spin-Spin,Magnetic field MRCI
   Miquel Garcia          : C-PCM and meta-GGA Hessian, CC/C-PCM, Gaussian charge scheme
   Yang Guo               : DLPNO-NEVPT2, F12-NEVPT2, CIM, IAO-localization
   Andreas Hansen         : Spin unrestricted coupled pair/coupled cluster methods
   Benjamin Helmich-Paris : MC-RPA, TRAH-SCF, COSX integrals
   Lee Huntington         : MR-EOM, pCC
   Robert Izsak           : Overlap fitted RIJCOSX, COSX-SCS-MP3, EOM
   Marcus Kettner         : VPT2
   Christian Kollmar      : KDIIS, OOCD, Brueckner-CCSD(T), CCSD density, CASPT2, CASPT2-K
   Simone Kossmann        : Meta GGA functionals, TD-DFT gradient, OOMP2, MP2 Hessian
   Martin Krupicka        : Initial AUTO-CI
   Lucas Lang             : DCDCAS
   Marvin Lechner         : AUTO-CI (C++ implementation), FIC-MRCC
   Dagmar Lenk            : GEPOL surface, SMD
   Dimitrios Liakos       : Extrapolation schemes; Compound Job, initial MDCI parallelization
   Dimitrios Manganas     : Further ROCIS development; embedding schemes
   Dimitrios Pantazis     : SARC Basis sets
   Anastasios Papadopoulos: AUTO-CI, single reference methods and gradients
   Taras Petrenko         : DFT Hessian,TD-DFT gradient, ASA, ECA, R-Raman, ABS, FL, XAS/XES, NRVS
   Peter Pinski           : DLPNO-MP2, DLPNO-MP2 Gradient
   Christoph Reimann      : Effective Core Potentials
   Marius Retegan         : Local ZFS, SOC
   Christoph Riplinger    : Optimizer, TS searches, QM/MM, DLPNO-CCSD(T), (RO)-DLPNO pert. Triples
   Tobias Risthaus        : Range-separated hybrids, TD-DFT gradient, RPA, STAB
   Michael Roemelt        : Original ROCIS implementation
   Masaaki Saitow         : Open-shell DLPNO-CCSD energy and density
   Barbara Sandhoefer     : DKH picture change effects
   Avijit Sen             : IP-ROCIS
   Kantharuban Sivalingam : CASSCF convergence, NEVPT2, FIC-MRCI
   Bernardo de Souza      : ESD, SOC TD-DFT
   Georgi Stoychev        : AutoAux, RI-MP2 NMR, DLPNO-MP2 response
   Willem Van den Heuvel  : Paramagnetic NMR
   Boris Wezisla          : Elementary symmetry handling
   Frank Wennmohs         : Technical directorship


 We gratefully acknowledge several colleagues who have allowed us to
 interface, adapt or use parts of their codes:
   Stefan Grimme, W. Hujo, H. Kruse, P. Pracht,  : VdW corrections, initial TS optimization,
                  C. Bannwarth, S. Ehlert          DFT functionals, gCP, sTDA/sTD-DF
   Ed Valeev, F. Pavosevic, A. Kumar             : LibInt (2-el integral package), F12 methods
   Garnet Chan, S. Sharma, J. Yang, R. Olivares  : DMRG
   Ulf Ekstrom                                   : XCFun DFT Library
   Mihaly Kallay                                 : mrcc  (arbitrary order and MRCC methods)
   Jiri Pittner, Ondrej Demel                    : Mk-CCSD
   Frank Weinhold                                : gennbo (NPA and NBO analysis)
   Christopher J. Cramer and Donald G. Truhlar   : smd solvation model
   Lars Goerigk                                  : TD-DFT with DH, B97 family of functionals
   V. Asgeirsson, H. Jonsson                     : NEB implementation
   FAccTs GmbH                                   : IRC, NEB, NEB-TS, DLPNO-Multilevel, CI-OPT
                                                   MM, QMMM, 2- and 3-layer-ONIOM, Crystal-QMMM,
                                                   LR-CPCM, SF, NACMEs, symmetry and pop. for TD-DFT,
                                                   nearIR, NL-DFT gradient (VV10), updates on ESD,
                                                   ML-optimized integration grids
   S Lehtola, MJT Oliveira, MAL Marques          : LibXC Library
   Liviu Ungur et al                             : ANISO software


 Your calculation uses the libint2 library for the computation of 2-el integrals
 For citations please refer to: http://libint.valeyev.net

 Your ORCA version has been built with support for libXC version: 5.1.0
 For citations please refer to: https://tddft.org/programs/libxc/

 This ORCA versions uses:
   CBLAS   interface :  Fast vector & matrix operations
   LAPACKE interface :  Fast linear algebra routines
   SCALAPACK package :  Parallel linear algebra routines
   Shared memory     :  Shared parallel matrices
   BLAS/LAPACK       :  OpenBLAS 0.3.15  USE64BITINT DYNAMIC_ARCH NO_AFFINITY Haswell SINGLE_THREADED
        Core in use  :  Haswell
   Copyright (c) 2011-2014, The OpenBLAS Project




***************************************
The coordinates will be read from file: benzylamine.xyz
***************************************


Your calculation utilizes the atom-pairwise dispersion correction
with the Becke-Johnson damping scheme (D3BJ)
Cite in your paper:
S.Grimme, S.Ehrlich, L.Goerigk, J Comput Chem, (2011), 32, 1456–1465 
S.Grimme, J.Antony, S.Ehrlich and H.Krieg, J.Chem.Phys., 132, (2010), 154104 
   

================================================================================

----- Orbital basis set information -----
Your calculation utilizes the basis: def2-TZVP
   F. Weigend and R. Ahlrichs, Phys. Chem. Chem. Phys. 7, 3297 (2005).

----- AuxJ basis set information -----
Your calculation utilizes the auxiliary basis: def2/J
   F. Weigend, Phys. Chem. Chem. Phys. 8, 1057 (2006).

================================================================================
                                        WARNINGS
                       Please study these warnings very carefully!
================================================================================


WARNING: Geometry Optimization
  ===> : Switching off AutoStart
         For restart on a previous wavefunction, please use MOREAD

INFO   : the flag for use of the SHARK integral package has been found!

================================================================================
                                       INPUT FILE
================================================================================
NAME = orca.inp
|  1> !B3LYP DEF2-TZVP D3BJ 
|  2> !OPT FREQ TIGHTOPT TightSCF defgrid2
|  3> %SCF
|  4>     MaxIter 2000       # Here setting MaxIter to a very high number. Intended for systems that require sometimes 1000 iterations before converging (very rare).
|  5>     DIISMaxEq 5        # Default value is 5. A value of 15-40 necessary for difficult systems.
|  6>     directresetfreq 15 # Default value is 15. A value of 1 (very expensive) is sometimes required. A value between 1 and 15 may be more cost-effective.
|  7> END
|  8> %CPCM EPSILON 6.02 REFRAC 1.3723 END
|  9> %PAL NPROCS 32 END
| 10> * xyzfile 0 1 benzylamine.xyz 
| 11> 
| 12>                          ****END OF INPUT****
================================================================================

                       *****************************
                       * Geometry Optimization Run *
                       *****************************

Geometry optimization settings:
Update method            Update   .... BFGS
Choice of coordinates    CoordSys .... Z-matrix Internals
Initial Hessian          InHess   .... Almoef's Model

Convergence Tolerances:
Energy Change            TolE     ....  1.0000e-06 Eh
Max. Gradient            TolMAXG  ....  1.0000e-04 Eh/bohr
RMS Gradient             TolRMSG  ....  3.0000e-05 Eh/bohr
Max. Displacement        TolMAXD  ....  1.0000e-03 bohr
RMS Displacement         TolRMSD  ....  6.0000e-04 bohr
Strict Convergence                ....  False
------------------------------------------------------------------------------
                        ORCA OPTIMIZATION COORDINATE SETUP
------------------------------------------------------------------------------

The optimization will be done in new redundant internal coordinates
Making redundant internal coordinates   ...  (new redundants) done
Evaluating the initial hessian          ...  (Almloef) done
Evaluating the coordinates              ...  done
Calculating the B-matrix                .... done
Calculating the G-matrix                .... done
Diagonalizing the G-matrix              .... done
Small eigenvalue found = 2.780e-02
The first mode is                       ....   35
The number of degrees of freedom        ....   45

    -----------------------------------------------------------------
                    Redundant Internal Coordinates


    -----------------------------------------------------------------
         Definition                    Initial Value    Approx d2E/dq
    -----------------------------------------------------------------
      1. B(C   1,C   0)                  1.3981         0.606432   
      2. B(C   2,C   1)                  1.4058         0.589627   
      3. B(C   3,C   2)                  1.4110         0.578492   
      4. B(C   4,C   3)                  1.3986         0.605318   
      5. B(C   5,C   4)                  1.3964         0.610308   
      6. B(C   5,C   0)                  1.3963         0.610591   
      7. B(H   6,C   0)                  1.0824         0.370271   
      8. B(H   7,C   5)                  1.0824         0.370244   
      9. B(H   8,C   1)                  1.0833         0.369103   
     10. B(H   9,C   3)                  1.0814         0.371685   
     11. B(H  10,C   4)                  1.0825         0.370199   
     12. B(C  11,C   2)                  1.5139         0.396401   
     13. B(N  12,C  11)                  1.4611         0.430999   
     14. B(H  13,C  11)                  1.1129         0.331069   
     15. B(H  14,C  11)                  1.1119         0.332253   
     16. B(H  15,N  12)                  1.0461         0.379014   
     17. B(H  16,N  12)                  1.0456         0.379710   
     18. A(C   5,C   0,H   6)          119.9291         0.353660   
     19. A(C   1,C   0,H   6)          119.9804         0.353251   
     20. A(C   1,C   0,C   5)          120.0904         0.431156   
     21. A(C   0,C   1,H   8)          119.1163         0.353062   
     22. A(C   0,C   1,C   2)          120.6072         0.428461   
     23. A(C   2,C   1,H   8)          120.2764         0.351388   
     24. A(C   1,C   2,C   3)          118.7882         0.424856   
     25. A(C   1,C   2,C  11)          118.2308         0.397317   
     26. A(C   3,C   2,C  11)          122.9804         0.395989   
     27. A(C   4,C   3,H   9)          118.1927         0.353369   
     28. A(C   2,C   3,H   9)          121.4577         0.350671   
     29. A(C   2,C   3,C   4)          120.3495         0.426859   
     30. A(C   3,C   4,H  10)          119.9300         0.353130   
     31. A(C   3,C   4,C   5)          120.1968         0.430978   
     32. A(C   5,C   4,H  10)          119.8731         0.353621   
     33. A(C   0,C   5,C   4)          119.9677         0.431650   
     34. A(C   4,C   5,H   7)          120.0115         0.353628   
     35. A(C   0,C   5,H   7)          120.0208         0.353656   
     36. A(H  13,C  11,H  14)          108.3471         0.283461   
     37. A(N  12,C  11,H  14)          108.6879         0.325707   
     38. A(C   2,C  11,H  14)          108.2095         0.323193   
     39. A(N  12,C  11,H  13)          109.2153         0.325516   
     40. A(C   2,C  11,H  13)          109.3003         0.323004   
     41. A(C   2,C  11,N  12)          112.9748         0.373842   
     42. A(H  15,N  12,H  16)          107.3386         0.290869   
     43. A(C  11,N  12,H  16)          108.4623         0.330127   
     44. A(C  11,N  12,H  15)          109.0372         0.330026   
     45. D(H   8,C   1,C   0,H   6)     -0.0053         0.025382   
     46. D(C   2,C   1,C   0,H   6)   -179.9206         0.025382   
     47. D(C   2,C   1,C   0,C   5)      0.0279         0.025382   
     48. D(H   8,C   1,C   0,C   5)    179.9432         0.025382   
     49. D(C   3,C   2,C   1,C   0)      0.0090         0.023923   
     50. D(C  11,C   2,C   1,H   8)     -0.1792         0.023923   
     51. D(C   3,C   2,C   1,H   8)   -179.9053         0.023923   
     52. D(C  11,C   2,C   1,C   0)    179.7351         0.023923   
     53. D(H   9,C   3,C   2,C  11)      0.1160         0.022986   
     54. D(H   9,C   3,C   2,C   1)    179.8283         0.022986   
     55. D(C   4,C   3,C   2,C  11)   -179.7728         0.022986   
     56. D(C   4,C   3,C   2,C   1)     -0.0605         0.022986   
     57. D(C   5,C   4,C   3,H   9)   -179.8170         0.025284   
     58. D(H  10,C   4,C   3,C   2)    179.9985         0.025284   
     59. D(C   5,C   4,C   3,C   2)      0.0754         0.025284   
     60. D(H  10,C   4,C   3,H   9)      0.1061         0.025284   
     61. D(H   7,C   5,C   4,H  10)     -0.0142         0.025726   
     62. D(C   0,C   5,C   4,H  10)   -179.9611         0.025726   
     63. D(C   0,C   5,C   4,C   3)     -0.0379         0.025726   
     64. D(H   7,C   5,C   0,H   6)     -0.0120         0.025752   
     65. D(H   7,C   5,C   0,C   1)   -179.9605         0.025752   
     66. D(H   7,C   5,C   4,C   3)    179.9090         0.025726   
     67. D(C   4,C   5,C   0,H   6)    179.9349         0.025752   
     68. D(C   4,C   5,C   0,C   1)     -0.0136         0.025752   
     69. D(H  14,C  11,C   2,C   3)    120.4515         0.011671   
     70. D(H  14,C  11,C   2,C   1)    -59.2623         0.011671   
     71. D(H  13,C  11,C   2,C   3)   -121.7538         0.011671   
     72. D(H  13,C  11,C   2,C   1)     58.5324         0.011671   
     73. D(N  12,C  11,C   2,C   3)      0.0648         0.011671   
     74. D(N  12,C  11,C   2,C   1)   -179.6491         0.011671   
     75. D(H  15,N  12,C  11,C   2)    -68.0202         0.015837   
     76. D(H  16,N  12,C  11,H  14)     55.2790         0.015837   
     77. D(H  16,N  12,C  11,H  13)    -62.7415         0.015837   
     78. D(H  16,N  12,C  11,C   2)    175.3921         0.015837   
     79. D(H  15,N  12,C  11,H  14)    171.8668         0.015837   
     80. D(H  15,N  12,C  11,H  13)     53.8463         0.015837   
    -----------------------------------------------------------------

Number of atoms                         .... 17
Number of degrees of freedom            .... 80

         *************************************************************
         *                GEOMETRY OPTIMIZATION CYCLE   1            *
         *************************************************************
---------------------------------
CARTESIAN COORDINATES (ANGSTROEM)
---------------------------------
  C     -2.679730    1.534200    1.350300
  C     -1.470300    2.226440    1.237050
  C     -0.491260    2.125750    2.240810
  C     -0.751340    1.313170    3.364590
  C     -1.963480    0.623880    3.472930
  C     -2.926180    0.733670    2.467420
  H     -3.425980    1.618020    0.570740
  H     -3.862660    0.197720    2.553640
  H     -1.295270    2.842280    0.363210
  H     -0.027790    1.202520    4.160590
  H     -2.155890    0.002330    4.338030
  C      0.800970    2.893420    2.060300
  N      1.737920    2.700560    3.164690
  H      0.573330    3.977980    1.958260
  H      1.282530    2.546880    1.119900
  H      1.348120    3.149740    4.025240
  H      2.629830    3.194200    2.932260

----------------------------
CARTESIAN COORDINATES (A.U.)
----------------------------
  NO LB      ZA    FRAG     MASS         X           Y           Z
   0 C     6.0000    0    12.011   -5.063956    2.899218    2.551697
   1 C     6.0000    0    12.011   -2.778464    4.207362    2.337686
   2 C     6.0000    0    12.011   -0.928347    4.017085    4.234517
   3 C     6.0000    0    12.011   -1.419827    2.481532    6.358154
   4 C     6.0000    0    12.011   -3.710439    1.178962    6.562887
   5 C     6.0000    0    12.011   -5.529679    1.386435    4.662748
   6 H     1.0000    0     1.008   -6.474164    3.057615    1.078542
   7 H     1.0000    0     1.008   -7.299370    0.373637    4.825680
   8 H     1.0000    0     1.008   -2.447706    5.371131    0.686367
   9 H     1.0000    0     1.008   -0.052515    2.272433    7.862376
  10 H     1.0000    0     1.008   -4.074042    0.004403    8.197689
  11 C     6.0000    0    12.011    1.513614    5.467771    3.893403
  12 N     7.0000    0    14.007    3.284193    5.103319    5.980397
  13 H     1.0000    0     1.008    1.083437    7.517293    3.700575
  14 H     1.0000    0     1.008    2.423630    4.812906    2.116304
  15 H     1.0000    0     1.008    2.547578    5.952146    7.606601
  16 H     1.0000    0     1.008    4.969658    6.036163    5.541168

--------------------------------
INTERNAL COORDINATES (ANGSTROEM)
--------------------------------
 C      0   0   0     0.000000000000     0.00000000     0.00000000
 C      1   0   0     1.398121133879     0.00000000     0.00000000
 C      2   1   0     1.405770939840   120.60723140     0.00000000
 C      3   2   1     1.410960435732   118.78823702     0.00000000
 C      4   3   2     1.398621335208   120.34952838   359.93953431
 C      1   2   3     1.396260354590   120.09040050     0.02789897
 H      1   2   3     1.082417963866   119.98044702   180.07942068
 H      6   1   2     1.082437564620   120.02080858   180.03950366
 H      2   1   3     1.083277781596   119.11632413   179.91529633
 H      4   3   2     1.081380610608   121.45770167   179.82830747
 H      5   4   3     1.082471256247   119.92998739   179.99848786
 C      3   2   1     1.513855825995   118.23079335   179.73513531
 N     12   3   2     1.461077531892   112.97483822   180.35094958
 H     12   3   2     1.112880283229   109.30033371    58.53237536
 H     12   3   2     1.111909243239   108.20951098   300.73765475
 H     13  12   3     1.046065492644   109.03719732   291.97984016
 H     13  12   3     1.045565685455   108.46231481   175.39211427

---------------------------
INTERNAL COORDINATES (A.U.)
---------------------------
 C      0   0   0     0.000000000000     0.00000000     0.00000000
 C      1   0   0     2.642066045079     0.00000000     0.00000000
 C      2   1   0     2.656522083324   120.60723140     0.00000000
 C      3   2   1     2.666328809331   118.78823702     0.00000000
 C      4   3   2     2.643011288603   120.34952838   359.93953431
 C      1   2   3     2.638549681827   120.09040050     0.02789897
 H      1   2   3     2.045473514144   119.98044702   180.07942068
 H      6   1   2     2.045510554200   120.02080858   180.03950366
 H      2   1   3     2.047098334179   119.11632413   179.91529633
 H      4   3   2     2.043513200583   121.45770167   179.82830747
 H      5   4   3     2.045574222148   119.92998739   179.99848786
 C      3   2   1     2.860772917372   118.23079335   179.73513531
 N     12   3   2     2.761036395702   112.97483822   180.35094958
 H     12   3   2     2.103038955144   109.30033371    58.53237536
 H     12   3   2     2.101203955497   108.20951098   300.73765475
 H     13  12   3     1.976777299242   109.03719732   291.97984016
 H     13  12   3     1.975832800535   108.46231481   175.39211427

---------------------
BASIS SET INFORMATION
---------------------
There are 3 groups of distinct atoms

 Group   1 Type C   : 11s6p2d1f contracted to 5s3p2d1f pattern {62111/411/11/1}
 Group   2 Type H   : 5s1p contracted to 3s1p pattern {311/1}
 Group   3 Type N   : 11s6p2d1f contracted to 5s3p2d1f pattern {62111/411/11/1}

Atom   0C    basis set group =>   1
Atom   1C    basis set group =>   1
Atom   2C    basis set group =>   1
Atom   3C    basis set group =>   1
Atom   4C    basis set group =>   1
Atom   5C    basis set group =>   1
Atom   6H    basis set group =>   2
Atom   7H    basis set group =>   2
Atom   8H    basis set group =>   2
Atom   9H    basis set group =>   2
Atom  10H    basis set group =>   2
Atom  11C    basis set group =>   1
Atom  12N    basis set group =>   3
Atom  13H    basis set group =>   2
Atom  14H    basis set group =>   2
Atom  15H    basis set group =>   2
Atom  16H    basis set group =>   2
---------------------------------
AUXILIARY/J BASIS SET INFORMATION
---------------------------------
There are 3 groups of distinct atoms

 Group   1 Type C   : 12s5p4d2f1g contracted to 6s4p3d1f1g pattern {711111/2111/211/2/1}
 Group   2 Type H   : 5s2p1d contracted to 3s1p1d pattern {311/2/1}
 Group   3 Type N   : 12s5p4d2f1g contracted to 6s4p3d1f1g pattern {711111/2111/211/2/1}

Atom   0C    basis set group =>   1
Atom   1C    basis set group =>   1
Atom   2C    basis set group =>   1
Atom   3C    basis set group =>   1
Atom   4C    basis set group =>   1
Atom   5C    basis set group =>   1
Atom   6H    basis set group =>   2
Atom   7H    basis set group =>   2
Atom   8H    basis set group =>   2
Atom   9H    basis set group =>   2
Atom  10H    basis set group =>   2
Atom  11C    basis set group =>   1
Atom  12N    basis set group =>   3
Atom  13H    basis set group =>   2
Atom  14H    basis set group =>   2
Atom  15H    basis set group =>   2
Atom  16H    basis set group =>   2


           ************************************************************
           *        Program running with 32 parallel MPI-processes    *
           *              working on a shared directory               *
           ************************************************************
------------------------------------------------------------------------------
                           ORCA GTO INTEGRAL CALCULATION
                           -- RI-GTO INTEGRALS CHOSEN --
------------------------------------------------------------------------------
------------------------------------------------------------------------------
                   ___                                                        
                  /   \      - P O W E R E D   B Y -                         
                 /     \                                                     
                 |  |  |   _    _      __       _____    __    __             
                 |  |  |  | |  | |    /  \     |  _  \  |  |  /  |          
                  \  \/   | |  | |   /    \    | | | |  |  | /  /          
                 / \  \   | |__| |  /  /\  \   | |_| |  |  |/  /          
                |  |  |   |  __  | /  /__\  \  |    /   |      \           
                |  |  |   | |  | | |   __   |  |    \   |  |\   \          
                \     /   | |  | | |  |  |  |  | |\  \  |  | \   \       
                 \___/    |_|  |_| |__|  |__|  |_| \__\ |__|  \__/        
                                                                              
                      - O R C A' S   B I G   F R I E N D -                    
                                      &                                       
                       - I N T E G R A L  F E E D E R -                       
                                                                              
 v1 FN, 2020, v2 2021                                                         
------------------------------------------------------------------------------


Reading SHARK input file orca.SHARKINP.tmp ... ok
----------------------
SHARK INTEGRAL PACKAGE
----------------------

Number of atoms                             ...     17
Number of basis functions                   ...    302
Number of shells                            ...    124
Maximum angular momentum                    ...      3
Integral batch strategy                     ... SHARK/LIBINT Hybrid
RI-J (if used) integral strategy            ... SPLIT-RIJ (Revised 2003 algorithm where possible)
Printlevel                                  ...      1
Contraction scheme used                     ... SEGMENTED contraction
Coulomb Range Separation                    ... NOT USED
Exchange Range Separation                   ... NOT USED
Finite Nucleus Model                        ... NOT USED
Auxiliary Coulomb fitting basis             ... AVAILABLE
   # of basis functions in Aux-J            ...    491
   # of shells in Aux-J                     ...    165
   Maximum angular momentum in Aux-J        ...      4
Auxiliary J/K fitting basis                 ... NOT available
Auxiliary Correlation fitting basis         ... NOT available
Auxiliary 'external' fitting basis          ... NOT available
Integral threshold                          ...     2.500000e-11
Primitive cut-off                           ...     2.500000e-12
Primitive pair pre-selection threshold      ...     2.500000e-12

Calculating pre-screening integrals         ... done (  0.1 sec) Dimension = 124
Organizing shell pair data                  ... done (  0.5 sec)
Shell pair information
Total number of shell pairs                 ...      7750
Shell pairs after pre-screening             ...      7058
Total number of primitive shell pairs       ...     23208
Primitive shell pairs kept                  ...     16032
          la=0 lb=0:   1993 shell pairs
          la=1 lb=0:   2014 shell pairs
          la=1 lb=1:    528 shell pairs
          la=2 lb=0:    995 shell pairs
          la=2 lb=1:    503 shell pairs
          la=2 lb=2:    131 shell pairs
          la=3 lb=0:    486 shell pairs
          la=3 lb=1:    251 shell pairs
          la=3 lb=2:    123 shell pairs
          la=3 lb=3:     34 shell pairs

Calculating one electron integrals          ... done (  0.2 sec)
Calculating RI/J V-Matrix + Cholesky decomp.... done (  1.3 sec)
Calculating Nuclear repulsion               ... done (  0.0 sec) ENN=    339.879210052078 Eh

SHARK setup successfully completed in   5.1 seconds

Maximum memory used throughout the entire GTOINT-calculation: 20.4 MB


           ************************************************************
           *        Program running with 32 parallel MPI-processes    *
           *              working on a shared directory               *
           ************************************************************
-------------------------------------------------------------------------------
                                 ORCA SCF
-------------------------------------------------------------------------------

------------
SCF SETTINGS
------------
Hamiltonian:
 Density Functional     Method          .... DFT(GTOs)
 Exchange Functional    Exchange        .... B88
   X-Alpha parameter    XAlpha          ....  0.666667
   Becke's b parameter  XBeta           ....  0.004200
 Correlation Functional Correlation     .... LYP
 LDA part of GGA corr.  LDAOpt          .... VWN-5
 Gradients option       PostSCFGGA      .... off
 Hybrid DFT is turned on
   Fraction HF Exchange ScalHFX         ....  0.200000
   Scaling of DF-GGA-X  ScalDFX         ....  0.720000
   Scaling of DF-GGA-C  ScalDFC         ....  0.810000
   Scaling of DF-LDA-C  ScalLDAC        ....  1.000000
   Perturbative correction              ....  0.000000
   Density functional embedding theory  .... OFF
   NL short-range parameter             ....  4.800000
 RI-approximation to the Coulomb term is turned on
   Number of AuxJ basis functions       .... 491
   RIJ-COSX (HFX calculated with COS-X)).... on


General Settings:
 Integral files         IntName         .... orca
 Hartree-Fock type      HFTyp           .... RHF
 Total Charge           Charge          ....    0
 Multiplicity           Mult            ....    1
 Number of Electrons    NEL             ....   58
 Basis Dimension        Dim             ....  302
 Nuclear Repulsion      ENuc            ....    339.8792100521 Eh

Convergence Acceleration:
 DIIS                   CNVDIIS         .... on
   Start iteration      DIISMaxIt       ....    12
   Startup error        DIISStart       ....  0.200000
   # of expansion vecs  DIISMaxEq       ....     5
   Bias factor          DIISBfac        ....   1.050
   Max. coefficient     DIISMaxC        ....  10.000
 Trust-Rad. Augm. Hess. CNVTRAH         .... auto
   Auto Start mean grad. ratio tolernc. ....  1.125000
   Auto Start start iteration           ....    20
   Auto Start num. interpolation iter.  ....    10
   Max. Number of Micro iterations      ....    16
   Max. Number of Macro iterations      .... Maxiter - #DIIS iter
   Number of Davidson start vectors     ....     2
   Converg. threshold I  (grad. norm)   ....   1.000e-05
   Converg. threshold II (energy diff.) ....   1.000e-08
   Grad. Scal. Fac. for Micro threshold ....   0.100
   Minimum threshold for Micro iter.    ....   0.010
   NR start threshold (gradient norm)   ....   0.001
   Initial trust radius                 ....   0.400
   Minimum AH scaling param. (alpha)    ....   1.000
   Maximum AH scaling param. (alpha)    .... 1000.000
   Orbital update algorithm             .... Taylor
   White noise on init. David. guess    .... on
   Maximum white noise                  ....   0.010
   Quad. conv. algorithm                .... NR
 SOSCF                  CNVSOSCF        .... on
   Start iteration      SOSCFMaxIt      ....   150
   Startup grad/error   SOSCFStart      ....  0.003300
 Level Shifting         CNVShift        .... on
   Level shift para.    LevelShift      ....    0.2500
   Turn off err/grad.   ShiftErr        ....    0.0010
 Zerner damping         CNVZerner       .... off
 Static damping         CNVDamp         .... on
   Fraction old density DampFac         ....    0.7000
   Max. Damping (<1)    DampMax         ....    0.9800
   Min. Damping (>=0)   DampMin         ....    0.0000
   Turn off err/grad.   DampErr         ....    0.1000
 Fernandez-Rico         CNVRico         .... off

SCF Procedure:
 Maximum # iterations   MaxIter         ....  2000
 SCF integral mode      SCFMode         .... Direct
   Integral package                     .... SHARK and LIBINT hybrid scheme
 Reset frequency        DirectResetFreq ....    15
 Integral Threshold     Thresh          ....  2.500e-11 Eh
 Primitive CutOff       TCut            ....  2.500e-12 Eh

Convergence Tolerance:
 Convergence Check Mode ConvCheckMode   .... Total+1el-Energy
 Convergence forced     ConvForced      .... 0
 Energy Change          TolE            ....  1.000e-08 Eh
 1-El. energy change                    ....  1.000e-05 Eh
 Orbital Gradient       TolG            ....  1.000e-05
 Orbital Rotation angle TolX            ....  1.000e-05
 DIIS Error             TolErr          ....  5.000e-07


Diagonalization of the overlap matrix:
Smallest eigenvalue                        ... 9.160e-06
Time for diagonalization                   ...    0.315 sec
Threshold for overlap eigenvalues          ... 1.000e-08
Number of eigenvalues below threshold      ... 0
Time for construction of square roots      ...    0.454 sec
Total time needed                          ...    0.798 sec

Time for model grid setup =    1.461 sec

------------------------------
INITIAL GUESS: MODEL POTENTIAL
------------------------------
Loading Hartree-Fock densities                     ... done
Calculating cut-offs                               ... done
Initializing the effective Hamiltonian             ... done
Setting up the integral package (SHARK)            ... done
Starting the Coulomb interaction                   ... done (   1.5 sec)
Reading the grid                                   ... done
Mapping shells                                     ... done
Starting the XC term evaluation                    ... done (   0.2 sec)
  promolecular density results
     # of electrons  =     57.992037932
     EX              =    -45.205676517
     EC              =     -1.913675295
     EX+EC           =    -47.119351812
Transforming the Hamiltonian                       ... done (   1.0 sec)
Diagonalizing the Hamiltonian                      ... done (   1.1 sec)
Back transforming the eigenvectors                 ... done (   0.1 sec)
Now organizing SCF variables                       ... done
                      ------------------
                      INITIAL GUESS DONE (   5.7 sec)
                      ------------------
-------------------
DFT GRID GENERATION
-------------------

General Integration Accuracy     IntAcc      ... 4.388
Radial Grid Type                 RadialGrid  ... OptM3 with GC (2021)
Angular Grid (max. ang.)         AngularGrid ... 4 (Lebedev-302)
Angular grid pruning method      GridPruning ... 4 (adaptive)
Weight generation scheme         WeightScheme... Becke
Basis function cutoff            BFCut       ... 1.0000e-11
Integration weight cutoff        WCut        ... 1.0000e-14
Angular grids for H and He will be reduced by one unit
Partially contracted basis set               ... off
Rotationally invariant grid construction     ... off

Total number of grid points                  ...    77188
Total number of batches                      ...     1215
Average number of points per batch           ...       63
Average number of grid points per atom       ...     4540
Time for grid setup =    3.093 sec

--------------------
COSX GRID GENERATION
--------------------

GRIDX 1
-------
General Integration Accuracy     IntAcc      ... 3.816
Radial Grid Type                 RadialGrid  ... OptM3 with GC (2021)
Angular Grid (max. ang.)         AngularGrid ... 1 (Lebedev-50)
Angular grid pruning method      GridPruning ... 4 (adaptive)
Weight generation scheme         WeightScheme... Becke
Basis function cutoff            BFCut       ... 1.0000e-11
Integration weight cutoff        WCut        ... 1.0000e-14
Angular grids for H and He will be reduced by one unit
Partially contracted basis set               ... on
Rotationally invariant grid construction     ... off

Total number of grid points                  ...     9854
Total number of batches                      ...      161
Average number of points per batch           ...       61
Average number of grid points per atom       ...      580
UseSFitting                                  ... on

GRIDX 2
-------
General Integration Accuracy     IntAcc      ... 4.020
Radial Grid Type                 RadialGrid  ... OptM3 with GC (2021)
Angular Grid (max. ang.)         AngularGrid ... 2 (Lebedev-110)
Angular grid pruning method      GridPruning ... 4 (adaptive)
Weight generation scheme         WeightScheme... Becke
Basis function cutoff            BFCut       ... 1.0000e-11
Integration weight cutoff        WCut        ... 1.0000e-14
Angular grids for H and He will be reduced by one unit
Partially contracted basis set               ... on
Rotationally invariant grid construction     ... off

Total number of grid points                  ...    21245
Total number of batches                      ...      340
Average number of points per batch           ...       62
Average number of grid points per atom       ...     1250
UseSFitting                                  ... on

GRIDX 3
-------
General Integration Accuracy     IntAcc      ... 4.338
Radial Grid Type                 RadialGrid  ... OptM3 with GC (2021)
Angular Grid (max. ang.)         AngularGrid ... 3 (Lebedev-194)
Angular grid pruning method      GridPruning ... 4 (adaptive)
Weight generation scheme         WeightScheme... Becke
Basis function cutoff            BFCut       ... 1.0000e-11
Integration weight cutoff        WCut        ... 1.0000e-14
Angular grids for H and He will be reduced by one unit
Partially contracted basis set               ... on
Rotationally invariant grid construction     ... off

Total number of grid points                  ...    46629
Total number of batches                      ...      737
Average number of points per batch           ...       63
Average number of grid points per atom       ...     2743
UseSFitting                                  ... on

Time for X-Grid setup             =    6.438 sec


--------------------
CPCM SOLVATION MODEL
--------------------
CPCM parameters:
  Epsilon                                         ...       6.0200
  Refrac                                          ...       1.3723
  Rsolv                                           ...       1.3000
  Surface type                                    ... GAUSSIAN VDW
  Epsilon function type                           ...         CPCM
Radii:
 Radius for C  used is    3.8550 Bohr (=   2.0400 Ang.)
 Radius for H  used is    2.4944 Bohr (=   1.3200 Ang.)
 Radius for N  used is    3.5149 Bohr (=   1.8600 Ang.)
Calculating surface                               ...        done! (  0.0s)
GEPOL surface points                              ...          974
GEPOL Volume                                      ...     993.4724
GEPOL Surface-area                                ...     567.0028
Calculating surface distance matrix               ...        done! (  0.0s)
Performing Cholesky decomposition & store         ...        done! (  0.2s)
Overall time for CPCM initialization              ...                 0.2s
--------------
SCF ITERATIONS
--------------
ITER       Energy         Delta-E        Max-DP      RMS-DP      [F,P]     Damp
               ***  Starting incremental Fock matrix formation  ***
  0   -326.5756376731   0.000000000000 0.20202672  0.00167641  0.2823817 0.7000
  1   -326.6914133394  -0.115775666249 0.21974484  0.00155958  0.1264471 0.7000
                               ***Turning on DIIS***
  2   -326.7387538134  -0.047340474018 0.29074572  0.00233337  0.0321459 0.0000
  3   -326.8074203995  -0.068666586092 0.22297226  0.00140768  0.0764381 0.0000
  4   -326.8259283229  -0.018507923432 0.05985803  0.00041077  0.0084567 0.0000
  5   -326.8267933760  -0.000865053094 0.03113036  0.00021018  0.0072713 0.0000
                      *** Initiating the SOSCF procedure ***
                           *** Shutting down DIIS ***
                      *** Re-Reading the Fockian *** 
                      *** Removing any level shift *** 
ITER      Energy       Delta-E        Grad      Rot      Max-DP    RMS-DP
  6   -326.82687055  -0.0000771773  0.000178  0.000178  0.016153  0.000123
               *** Restarting incremental Fock matrix formation ***
  7   -326.82689045  -0.0000198954  0.000063  0.000112  0.001217  0.000014
  8   -326.82689041   0.0000000402  0.000062  0.000053  0.000793  0.000005
  9   -326.82689068  -0.0000002682  0.000006  0.000023  0.000073  0.000001
 10   -326.82689068  -0.0000000009  0.000009  0.000013  0.000043  0.000001
                  ***Gradient check signals convergence***
              ***Rediagonalizing the Fockian in SOSCF/NRSCF***

               *****************************************************
               *                     SUCCESS                       *
               *           SCF CONVERGED AFTER  11 CYCLES          *
               *****************************************************

Old exchange energy                            =     -9.215665460 Eh
New exchange energy                            =     -9.215658118 Eh
Exchange energy change after final integration =      0.000007341 Eh
Total energy after final integration           =   -326.826883331 Eh
Final COS-X integration done in                =     2.137 sec

----------------
TOTAL SCF ENERGY
----------------

Total Energy       :         -326.82688333 Eh           -8893.41163 eV

Components:
Nuclear Repulsion  :          339.87921005 Eh            9248.58349 eV
Electronic Energy  :         -666.70609338 Eh          -18141.99512 eV
One Electron Energy:        -1113.90231644 Eh          -30310.82300 eV
Two Electron Energy:          447.19622305 Eh           12168.82788 eV
Max COSX asymmetry :            0.00000131 Eh               0.00004 eV
CPCM Dielectric    :           -0.00923756 Eh              -0.25137 eV

Virial components:
Potential Energy   :         -651.89633742 Eh          -17739.00117 eV
Kinetic Energy     :          325.06945409 Eh            8845.58955 eV
Virial Ratio       :            2.00540632


DFT components:
N(Alpha)           :       29.000018619649 electrons
N(Beta)            :       29.000018619649 electrons
N(Total)           :       58.000037239297 electrons
E(X)               :      -36.593553682946 Eh       
E(C)               :       -2.267737447093 Eh       
E(XC)              :      -38.861291130039 Eh       
DFET-embed. en.    :        0.000000000000 Eh       
CPCM Solvation Model Properties:
Surface-charge          :           -0.02882394
Charge-correction       :           -0.00010326 Eh              -0.00281 eV
Free-energy (cav+disp)  :  This term is not implemented in the current solvation scheme

---------------
SCF CONVERGENCE
---------------

  Last Energy change         ...    4.9458e-09  Tolerance :   1.0000e-08
  Last MAX-Density change    ...    9.9920e-16  Tolerance :   1.0000e-07
  Last RMS-Density change    ...    1.4945e-17  Tolerance :   5.0000e-09
  Last Orbital Gradient      ...    9.7475e-07  Tolerance :   1.0000e-05
  Last Orbital Rotation      ...    3.8051e-06  Tolerance :   1.0000e-05

             **** THE GBW FILE WAS UPDATED (orca.gbw) ****
             **** DENSITY orca.scfp WAS UPDATED ****
             **** ENERGY FILE WAS UPDATED (orca.en.tmp) ****
             **** THE GBW FILE WAS UPDATED (orca.gbw) ****
             **** DENSITY orca.scfp WAS UPDATED ****
----------------
ORBITAL ENERGIES
----------------

  NO   OCC          E(Eh)            E(eV) 
   0   2.0000     -14.297779      -389.0624 
   1   2.0000     -10.196753      -277.4678 
   2   2.0000     -10.181825      -277.0615 
   3   2.0000     -10.171249      -276.7738 
   4   2.0000     -10.170569      -276.7553 
   5   2.0000     -10.169858      -276.7359 
   6   2.0000     -10.169230      -276.7188 
   7   2.0000     -10.168207      -276.6910 
   8   2.0000      -0.881980       -23.9999 
   9   2.0000      -0.844834       -22.9891 
  10   2.0000      -0.752149       -20.4670 
  11   2.0000      -0.740735       -20.1564 
  12   2.0000      -0.656359       -17.8604 
  13   2.0000      -0.600596       -16.3430 
  14   2.0000      -0.575191       -15.6518 
  15   2.0000      -0.513209       -13.9651 
  16   2.0000      -0.479016       -13.0347 
  17   2.0000      -0.461734       -12.5644 
  18   2.0000      -0.449166       -12.2224 
  19   2.0000      -0.427860       -11.6427 
  20   2.0000      -0.415395       -11.3035 
  21   2.0000      -0.405955       -11.0466 
  22   2.0000      -0.384861       -10.4726 
  23   2.0000      -0.356683        -9.7058 
  24   2.0000      -0.339146        -9.2286 
  25   2.0000      -0.336442        -9.1551 
  26   2.0000      -0.256720        -6.9857 
  27   2.0000      -0.251311        -6.8385 
  28   2.0000      -0.236670        -6.4401 
  29   0.0000      -0.013538        -0.3684 
  30   0.0000      -0.008147        -0.2217 
  31   0.0000       0.037000         1.0068 
  32   0.0000       0.063180         1.7192 
  33   0.0000       0.070541         1.9195 
  34   0.0000       0.093584         2.5465 
  35   0.0000       0.097472         2.6524 
  36   0.0000       0.104000         2.8300 
  37   0.0000       0.113982         3.1016 
  38   0.0000       0.129728         3.5301 
  39   0.0000       0.145383         3.9561 
  40   0.0000       0.155751         4.2382 
  41   0.0000       0.162643         4.4257 
  42   0.0000       0.178298         4.8517 
  43   0.0000       0.188777         5.1369 
  44   0.0000       0.207529         5.6472 
  45   0.0000       0.216582         5.8935 
  46   0.0000       0.224407         6.1064 
  47   0.0000       0.232820         6.3354 
  48   0.0000       0.242939         6.6107 
  49   0.0000       0.250654         6.8207 
  50   0.0000       0.258814         7.0427 
  51   0.0000       0.261597         7.1184 
  52   0.0000       0.285505         7.7690 
  53   0.0000       0.289988         7.8910 
  54   0.0000       0.300717         8.1829 
  55   0.0000       0.326848         8.8940 
  56   0.0000       0.344092         9.3632 
  57   0.0000       0.346313         9.4237 
  58   0.0000       0.358109         9.7446 
  59   0.0000       0.358716         9.7612 
  60   0.0000       0.361201         9.8288 
  61   0.0000       0.383631        10.4391 
  62   0.0000       0.394640        10.7387 
  63   0.0000       0.404408        11.0045 
  64   0.0000       0.407101        11.0778 
  65   0.0000       0.420454        11.4411 
  66   0.0000       0.425400        11.5757 
  67   0.0000       0.432450        11.7676 
  68   0.0000       0.442563        12.0428 
  69   0.0000       0.449989        12.2448 
  70   0.0000       0.460039        12.5183 
  71   0.0000       0.473265        12.8782 
  72   0.0000       0.479105        13.0371 
  73   0.0000       0.495824        13.4921 
  74   0.0000       0.499263        13.5856 
  75   0.0000       0.506081        13.7712 
  76   0.0000       0.514537        14.0013 
  77   0.0000       0.523569        14.2470 
  78   0.0000       0.543185        14.7808 
  79   0.0000       0.556426        15.1411 
  80   0.0000       0.581350        15.8194 
  81   0.0000       0.628873        17.1125 
  82   0.0000       0.643936        17.5224 
  83   0.0000       0.654672        17.8145 
  84   0.0000       0.658771        17.9261 
  85   0.0000       0.669190        18.2096 
  86   0.0000       0.690158        18.7801 
  87   0.0000       0.717933        19.5360 
  88   0.0000       0.724945        19.7267 
  89   0.0000       0.741173        20.1683 
  90   0.0000       0.747390        20.3375 
  91   0.0000       0.761319        20.7165 
  92   0.0000       0.780594        21.2410 
  93   0.0000       0.817222        22.2378 
  94   0.0000       0.818611        22.2755 
  95   0.0000       0.841468        22.8975 
  96   0.0000       0.851467        23.1696 
  97   0.0000       0.888659        24.1816 
  98   0.0000       0.898690        24.4546 
  99   0.0000       0.937831        25.5197 
 100   0.0000       0.950085        25.8531 
 101   0.0000       0.955960        26.0130 
 102   0.0000       0.968633        26.3578 
 103   0.0000       0.997782        27.1510 
 104   0.0000       1.018771        27.7222 
 105   0.0000       1.065659        28.9981 
 106   0.0000       1.083233        29.4763 
 107   0.0000       1.089133        29.6368 
 108   0.0000       1.110143        30.2085 
 109   0.0000       1.135472        30.8978 
 110   0.0000       1.178849        32.0781 
 111   0.0000       1.198575        32.6149 
 112   0.0000       1.207241        32.8507 
 113   0.0000       1.216717        33.1086 
 114   0.0000       1.234003        33.5789 
 115   0.0000       1.243004        33.8239 
 116   0.0000       1.255643        34.1678 
 117   0.0000       1.269865        34.5548 
 118   0.0000       1.281974        34.8843 
 119   0.0000       1.298850        35.3435 
 120   0.0000       1.324616        36.0446 
 121   0.0000       1.349562        36.7235 
 122   0.0000       1.363259        37.0962 
 123   0.0000       1.405146        38.2360 
 124   0.0000       1.407926        38.3116 
 125   0.0000       1.431961        38.9656 
 126   0.0000       1.452268        39.5182 
 127   0.0000       1.467983        39.9459 
 128   0.0000       1.479015        40.2460 
 129   0.0000       1.488691        40.5093 
 130   0.0000       1.504065        40.9277 
 131   0.0000       1.521907        41.4132 
 132   0.0000       1.551039        42.2059 
 133   0.0000       1.565090        42.5883 
 134   0.0000       1.569762        42.7154 
 135   0.0000       1.603909        43.6446 
 136   0.0000       1.626977        44.2723 
 137   0.0000       1.646431        44.8017 
 138   0.0000       1.663785        45.2739 
 139   0.0000       1.687222        45.9116 
 140   0.0000       1.691540        46.0291 
 141   0.0000       1.695758        46.1439 
 142   0.0000       1.716779        46.7159 
 143   0.0000       1.732510        47.1440 
 144   0.0000       1.741993        47.4020 
 145   0.0000       1.775264        48.3074 
 146   0.0000       1.822012        49.5795 
 147   0.0000       1.843076        50.1526 
 148   0.0000       1.872724        50.9594 
 149   0.0000       1.892981        51.5106 
 150   0.0000       1.926058        52.4107 
 151   0.0000       1.941017        52.8178 
 152   0.0000       1.970114        53.6095 
 153   0.0000       1.982034        53.9339 
 154   0.0000       1.996021        54.3145 
 155   0.0000       2.005418        54.5702 
 156   0.0000       2.027223        55.1635 
 157   0.0000       2.046258        55.6815 
 158   0.0000       2.073421        56.4207 
 159   0.0000       2.094730        57.0005 
 160   0.0000       2.131337        57.9966 
 161   0.0000       2.144534        58.3557 
 162   0.0000       2.161066        58.8056 
 163   0.0000       2.171596        59.0921 
 164   0.0000       2.206317        60.0369 
 165   0.0000       2.223635        60.5082 
 166   0.0000       2.230561        60.6967 
 167   0.0000       2.247941        61.1696 
 168   0.0000       2.283965        62.1499 
 169   0.0000       2.332269        63.4643 
 170   0.0000       2.406623        65.4875 
 171   0.0000       2.412517        65.6479 
 172   0.0000       2.475132        67.3518 
 173   0.0000       2.490268        67.7636 
 174   0.0000       2.494726        67.8849 
 175   0.0000       2.514121        68.4127 
 176   0.0000       2.528771        68.8114 
 177   0.0000       2.536293        69.0160 
 178   0.0000       2.571084        69.9627 
 179   0.0000       2.576491        70.1099 
 180   0.0000       2.608461        70.9798 
 181   0.0000       2.615499        71.1713 
 182   0.0000       2.633065        71.6493 
 183   0.0000       2.640697        71.8570 
 184   0.0000       2.648704        72.0749 
 185   0.0000       2.667893        72.5971 
 186   0.0000       2.676786        72.8391 
 187   0.0000       2.689034        73.1723 
 188   0.0000       2.703012        73.5527 
 189   0.0000       2.729160        74.2642 
 190   0.0000       2.760979        75.1301 
 191   0.0000       2.768807        75.3431 
 192   0.0000       2.775122        75.5149 
 193   0.0000       2.793236        76.0078 
 194   0.0000       2.800262        76.1990 
 195   0.0000       2.817658        76.6724 
 196   0.0000       2.838499        77.2395 
 197   0.0000       2.852169        77.6115 
 198   0.0000       2.861218        77.8577 
 199   0.0000       2.876599        78.2763 
 200   0.0000       2.892744        78.7156 
 201   0.0000       2.907000        79.1035 
 202   0.0000       2.937946        79.9456 
 203   0.0000       2.969876        80.8144 
 204   0.0000       2.978872        81.0592 
 205   0.0000       3.017482        82.1098 
 206   0.0000       3.038917        82.6931 
 207   0.0000       3.049102        82.9703 
 208   0.0000       3.055352        83.1403 
 209   0.0000       3.095761        84.2399 
 210   0.0000       3.120654        84.9173 
 211   0.0000       3.123655        84.9990 
 212   0.0000       3.136089        85.3373 
 213   0.0000       3.153260        85.8046 
 214   0.0000       3.172926        86.3397 
 215   0.0000       3.176943        86.4490 
 216   0.0000       3.180353        86.5418 
 217   0.0000       3.216111        87.5148 
 218   0.0000       3.225266        87.7640 
 219   0.0000       3.240552        88.1799 
 220   0.0000       3.261766        88.7572 
 221   0.0000       3.285517        89.4035 
 222   0.0000       3.304435        89.9182 
 223   0.0000       3.314321        90.1873 
 224   0.0000       3.320628        90.3589 
 225   0.0000       3.336813        90.7993 
 226   0.0000       3.347780        91.0977 
 227   0.0000       3.374672        91.8295 
 228   0.0000       3.378338        91.9293 
 229   0.0000       3.393364        92.3381 
 230   0.0000       3.401626        92.5630 
 231   0.0000       3.464632        94.2774 
 232   0.0000       3.475442        94.5716 
 233   0.0000       3.488157        94.9176 
 234   0.0000       3.508214        95.4634 
 235   0.0000       3.523966        95.8920 
 236   0.0000       3.542022        96.3833 
 237   0.0000       3.586856        97.6033 
 238   0.0000       3.595092        97.8274 
 239   0.0000       3.602191        98.0206 
 240   0.0000       3.684438       100.2587 
 241   0.0000       3.693942       100.5173 
 242   0.0000       3.734446       101.6195 
 243   0.0000       3.748098       101.9909 
 244   0.0000       3.791719       103.1779 
 245   0.0000       3.827971       104.1644 
 246   0.0000       3.847710       104.7015 
 247   0.0000       3.872146       105.3665 
 248   0.0000       3.929691       106.9323 
 249   0.0000       3.947870       107.4270 
 250   0.0000       3.981079       108.3307 
 251   0.0000       4.011894       109.1692 
 252   0.0000       4.025737       109.5459 
 253   0.0000       4.057569       110.4121 
 254   0.0000       4.094365       111.4133 
 255   0.0000       4.143949       112.7626 
 256   0.0000       4.175238       113.6140 
 257   0.0000       4.196280       114.1866 
 258   0.0000       4.204023       114.3973 
 259   0.0000       4.215510       114.7099 
 260   0.0000       4.228963       115.0759 
 261   0.0000       4.254794       115.7788 
 262   0.0000       4.273412       116.2855 
 263   0.0000       4.294635       116.8630 
 264   0.0000       4.309441       117.2658 
 265   0.0000       4.315330       117.4261 
 266   0.0000       4.396383       119.6317 
 267   0.0000       4.422173       120.3334 
 268   0.0000       4.479812       121.9019 
 269   0.0000       4.566501       124.2608 
 270   0.0000       4.617855       125.6582 
 271   0.0000       4.672252       127.1384 
 272   0.0000       4.676348       127.2499 
 273   0.0000       4.704655       128.0202 
 274   0.0000       4.730417       128.7212 
 275   0.0000       4.832597       131.5016 
 276   0.0000       4.852339       132.0388 
 277   0.0000       4.863234       132.3353 
 278   0.0000       4.883657       132.8911 
 279   0.0000       4.915144       133.7479 
 280   0.0000       4.949394       134.6799 
 281   0.0000       5.029358       136.8558 
 282   0.0000       5.062054       137.7455 
 283   0.0000       5.099085       138.7531 
 284   0.0000       5.182708       141.0287 
 285   0.0000       5.214038       141.8812 
 286   0.0000       5.273576       143.5013 
 287   0.0000       5.291868       143.9990 
 288   0.0000       5.367687       146.0622 
 289   0.0000       5.391101       146.6993 
 290   0.0000       5.465871       148.7339 
 291   0.0000       5.562036       151.3507 
 292   0.0000       5.626846       153.1143 
 293   0.0000       5.817661       158.3066 
 294   0.0000      21.967613       597.7691 
 295   0.0000      22.460245       611.1743 
 296   0.0000      22.573926       614.2678 
 297   0.0000      22.579708       614.4251 
 298   0.0000      22.672555       616.9516 
 299   0.0000      22.758783       619.2980 
 300   0.0000      23.155552       630.0946 
 301   0.0000      31.928604       868.8215 

                    ********************************
                    * MULLIKEN POPULATION ANALYSIS *
                    ********************************

-----------------------
MULLIKEN ATOMIC CHARGES
-----------------------
   0 C :   -0.125255
   1 C :   -0.222915
   2 C :    0.171949
   3 C :   -0.231275
   4 C :   -0.130378
   5 C :   -0.154312
   6 H :    0.132969
   7 H :    0.132544
   8 H :    0.127245
   9 H :    0.125741
  10 H :    0.133729
  11 C :   -0.104992
  12 N :   -0.561606
  13 H :    0.108710
  14 H :    0.116800
  15 H :    0.242867
  16 H :    0.238178
Sum of atomic charges:    0.0000000

--------------------------------
MULLIKEN REDUCED ORBITAL CHARGES
--------------------------------
  0 C s       :     3.211924  s :     3.211924
      pz      :     0.949218  p :     2.825274
      px      :     0.936832
      py      :     0.939225
      dz2     :     0.014089  d :     0.080813
      dxz     :     0.024759
      dyz     :     0.010425
      dx2y2   :     0.018635
      dxy     :     0.012906
      f0      :     0.001311  f :     0.007244
      f+1     :     0.000905
      f-1     :     0.000677
      f+2     :     0.001096
      f-2     :     0.001278
      f+3     :     0.001422
      f-3     :     0.000555
  1 C s       :     3.271584  s :     3.271584
      pz      :     0.967003  p :     2.865832
      px      :     0.919531
      py      :     0.979298
      dz2     :     0.013215  d :     0.078268
      dxz     :     0.018952
      dyz     :     0.014483
      dx2y2   :     0.017230
      dxy     :     0.014388
      f0      :     0.000994  f :     0.007231
      f+1     :     0.000981
      f-1     :     0.000809
      f+2     :     0.000847
      f-2     :     0.001478
      f+3     :     0.001416
      f-3     :     0.000706
  2 C s       :     3.143849  s :     3.143849
      pz      :     0.851031  p :     2.552559
      px      :     0.829671
      py      :     0.871857
      dz2     :     0.027493  d :     0.121951
      dxz     :     0.032496
      dyz     :     0.016449
      dx2y2   :     0.024498
      dxy     :     0.021016
      f0      :     0.001768  f :     0.009692
      f+1     :     0.001440
      f-1     :     0.000909
      f+2     :     0.001305
      f-2     :     0.001904
      f+3     :     0.001212
      f-3     :     0.001154
  3 C s       :     3.257735  s :     3.257735
      pz      :     0.963008  p :     2.885418
      px      :     0.978077
      py      :     0.944333
      dz2     :     0.013888  d :     0.080906
      dxz     :     0.026110
      dyz     :     0.010153
      dx2y2   :     0.018349
      dxy     :     0.012406
      f0      :     0.001237  f :     0.007216
      f+1     :     0.000926
      f-1     :     0.000717
      f+2     :     0.001083
      f-2     :     0.001283
      f+3     :     0.001380
      f-3     :     0.000590
  4 C s       :     3.216369  s :     3.216369
      pz      :     0.955786  p :     2.825497
      px      :     0.907565
      py      :     0.962146
      dz2     :     0.014205  d :     0.081252
      dxz     :     0.018636
      dyz     :     0.013941
      dx2y2   :     0.018500
      dxy     :     0.015969
      f0      :     0.001064  f :     0.007260
      f+1     :     0.000934
      f-1     :     0.000818
      f+2     :     0.000852
      f-2     :     0.001512
      f+3     :     0.001421
      f-3     :     0.000658
  5 C s       :     3.221735  s :     3.221735
      pz      :     0.910324  p :     2.846436
      px      :     0.970163
      py      :     0.965949
      dz2     :     0.025386  d :     0.078952
      dxz     :     0.015786
      dyz     :     0.014935
      dx2y2   :     0.009112
      dxy     :     0.013733
      f0      :     0.001321  f :     0.007189
      f+1     :     0.001234
      f-1     :     0.000757
      f+2     :     0.001061
      f-2     :     0.001514
      f+3     :     0.000419
      f-3     :     0.000883
  6 H s       :     0.844792  s :     0.844792
      pz      :     0.009186  p :     0.022239
      px      :     0.008682
      py      :     0.004371
  7 H s       :     0.845180  s :     0.845180
      pz      :     0.003937  p :     0.022276
      px      :     0.011447
      py      :     0.006892
  8 H s       :     0.850484  s :     0.850484
      pz      :     0.010579  p :     0.022271
      px      :     0.004064
      py      :     0.007628
  9 H s       :     0.851368  s :     0.851368
      pz      :     0.009312  p :     0.022891
      px      :     0.009084
      py      :     0.004496
 10 H s       :     0.844046  s :     0.844046
      pz      :     0.010420  p :     0.022225
      px      :     0.004100
      py      :     0.007705
 11 C s       :     3.259757  s :     3.259757
      pz      :     0.903164  p :     2.732517
      px      :     0.851987
      py      :     0.977366
      dz2     :     0.021267  d :     0.104517
      dxz     :     0.022455
      dyz     :     0.016442
      dx2y2   :     0.024390
      dxy     :     0.019962
      f0      :     0.001017  f :     0.008201
      f+1     :     0.001800
      f-1     :     0.000826
      f+2     :     0.000866
      f-2     :     0.001633
      f+3     :     0.001017
      f-3     :     0.001042
 12 N s       :     3.568931  s :     3.568931
      pz      :     1.121129  p :     3.949894
      px      :     1.144909
      py      :     1.683856
      dz2     :     0.009316  d :     0.040405
      dxz     :     0.007497
      dyz     :     0.009886
      dx2y2   :     0.003698
      dxy     :     0.010008
      f0      :     0.000299  f :     0.002376
      f+1     :     0.000514
      f-1     :     0.000305
      f+2     :     0.000379
      f-2     :     0.000297
      f+3     :     0.000151
      f-3     :     0.000429
 13 H s       :     0.870627  s :     0.870627
      pz      :     0.003894  p :     0.020663
      px      :     0.004266
      py      :     0.012504
 14 H s       :     0.862553  s :     0.862553
      pz      :     0.010614  p :     0.020647
      px      :     0.005308
      py      :     0.004726
 15 H s       :     0.723593  s :     0.723593
      pz      :     0.014263  p :     0.033540
      px      :     0.007036
      py      :     0.012242
 16 H s       :     0.728222  s :     0.728222
      pz      :     0.005947  p :     0.033600
      px      :     0.015643
      py      :     0.012010


                     *******************************
                     * LOEWDIN POPULATION ANALYSIS *
                     *******************************

----------------------
LOEWDIN ATOMIC CHARGES
----------------------
   0 C :   -0.148308
   1 C :   -0.118988
   2 C :   -0.145834
   3 C :   -0.125503
   4 C :   -0.148250
   5 C :   -0.155611
   6 H :    0.145555
   7 H :    0.144571
   8 H :    0.148753
   9 H :    0.145335
  10 H :    0.145589
  11 C :   -0.293319
  12 N :   -0.202583
  13 H :    0.128896
  14 H :    0.143510
  15 H :    0.168906
  16 H :    0.167281

-------------------------------
LOEWDIN REDUCED ORBITAL CHARGES
-------------------------------
  0 C s       :     2.770289  s :     2.770289
      pz      :     0.990875  p :     2.951414
      px      :     1.002563
      py      :     0.957975
      dz2     :     0.067239  d :     0.384208
      dxz     :     0.123345
      dyz     :     0.052769
      dx2y2   :     0.076296
      dxy     :     0.064559
      f0      :     0.007944  f :     0.042397
      f+1     :     0.005359
      f-1     :     0.005469
      f+2     :     0.004853
      f-2     :     0.007191
      f+3     :     0.006771
      f-3     :     0.004810
  1 C s       :     2.763854  s :     2.763854
      pz      :     0.974574  p :     2.938866
      px      :     1.024270
      py      :     0.940022
      dz2     :     0.068553  d :     0.374809
      dxz     :     0.092146
      dyz     :     0.065703
      dx2y2   :     0.078445
      dxy     :     0.069962
      f0      :     0.006334  f :     0.041459
      f+1     :     0.006904
      f-1     :     0.003950
      f+2     :     0.004939
      f-2     :     0.007473
      f+3     :     0.006722
      f-3     :     0.005138
  2 C s       :     2.723525  s :     2.723525
      pz      :     0.998869  p :     2.865084
      px      :     0.965420
      py      :     0.900794
      dz2     :     0.119168  d :     0.502870
      dxz     :     0.124489
      dyz     :     0.080054
      dx2y2   :     0.087111
      dxy     :     0.092048
      f0      :     0.009069  f :     0.054356
      f+1     :     0.008940
      f-1     :     0.006277
      f+2     :     0.007369
      f-2     :     0.010174
      f+3     :     0.007137
      f-3     :     0.005389
  3 C s       :     2.765498  s :     2.765498
      pz      :     0.983045  p :     2.946907
      px      :     1.008743
      py      :     0.955119
      dz2     :     0.065296  d :     0.371998
      dxz     :     0.119264
      dyz     :     0.050968
      dx2y2   :     0.073021
      dxy     :     0.063449
      f0      :     0.007437  f :     0.041100
      f+1     :     0.005304
      f-1     :     0.005345
      f+2     :     0.004632
      f-2     :     0.007001
      f+3     :     0.006627
      f-3     :     0.004753
  4 C s       :     2.770710  s :     2.770710
      pz      :     0.981287  p :     2.950733
      px      :     1.036716
      py      :     0.932731
      dz2     :     0.069553  d :     0.384460
      dxz     :     0.095307
      dyz     :     0.066843
      dx2y2   :     0.081234
      dxy     :     0.071522
      f0      :     0.006639  f :     0.042347
      f+1     :     0.006966
      f-1     :     0.004032
      f+2     :     0.005066
      f-2     :     0.007659
      f+3     :     0.006818
      f-3     :     0.005167
  5 C s       :     2.769829  s :     2.769829
      pz      :     1.030652  p :     2.961194
      px      :     0.984799
      py      :     0.945742
      dz2     :     0.116308  d :     0.382173
      dxz     :     0.084505
      dyz     :     0.070623
      dx2y2   :     0.043621
      dxy     :     0.067116
      f0      :     0.006682  f :     0.042415
      f+1     :     0.008124
      f-1     :     0.005869
      f+2     :     0.006853
      f-2     :     0.008138
      f+3     :     0.002647
      f-3     :     0.004103
  6 H s       :     0.795273  s :     0.795273
      pz      :     0.023895  p :     0.059171
      px      :     0.022689
      py      :     0.012588
  7 H s       :     0.796130  s :     0.796130
      pz      :     0.011662  p :     0.059300
      px      :     0.029174
      py      :     0.018463
  8 H s       :     0.791817  s :     0.791817
      pz      :     0.027160  p :     0.059431
      px      :     0.011875
      py      :     0.020396
  9 H s       :     0.793335  s :     0.793335
      pz      :     0.024684  p :     0.061330
      px      :     0.023673
      py      :     0.012973
 10 H s       :     0.795243  s :     0.795243
      pz      :     0.026766  p :     0.059168
      px      :     0.012050
      py      :     0.020351
 11 C s       :     2.790765  s :     2.790765
      pz      :     0.968667  p :     2.972883
      px      :     0.973143
      py      :     1.031073
      dz2     :     0.095599  d :     0.476477
      dxz     :     0.117221
      dyz     :     0.068448
      dx2y2   :     0.101444
      dxy     :     0.093766
      f0      :     0.006330  f :     0.053194
      f+1     :     0.009680
      f-1     :     0.006900
      f+2     :     0.005940
      f-2     :     0.012035
      f+3     :     0.006279
      f-3     :     0.006030
 12 N s       :     3.111303  s :     3.111303
      pz      :     1.177485  p :     3.944526
      px      :     1.172641
      py      :     1.594401
      dz2     :     0.038108  d :     0.136789
      dxz     :     0.032107
      dyz     :     0.026682
      dx2y2   :     0.013417
      dxy     :     0.026475
      f0      :     0.001402  f :     0.009965
      f+1     :     0.001969
      f-1     :     0.001358
      f+2     :     0.001278
      f-2     :     0.002367
      f+3     :     0.000427
      f-3     :     0.001164
 13 H s       :     0.814672  s :     0.814672
      pz      :     0.011241  p :     0.056432
      px      :     0.012276
      py      :     0.032916
 14 H s       :     0.801328  s :     0.801328
      pz      :     0.026493  p :     0.055162
      px      :     0.014388
      py      :     0.014281
 15 H s       :     0.730683  s :     0.730683
      pz      :     0.040952  p :     0.100411
      px      :     0.022126
      py      :     0.037334
 16 H s       :     0.732106  s :     0.732106
      pz      :     0.018465  p :     0.100613
      px      :     0.042908
      py      :     0.039240


                      *****************************
                      * MAYER POPULATION ANALYSIS *
                      *****************************

  NA   - Mulliken gross atomic population
  ZA   - Total nuclear charge
  QA   - Mulliken gross atomic charge
  VA   - Mayer's total valence
  BVA  - Mayer's bonded valence
  FA   - Mayer's free valence

  ATOM       NA         ZA         QA         VA         BVA        FA
  0 C      6.1253     6.0000    -0.1253     3.8618     3.8618     0.0000
  1 C      6.2229     6.0000    -0.2229     3.9183     3.9183    -0.0000
  2 C      5.8281     6.0000     0.1719     3.5445     3.5445     0.0000
  3 C      6.2313     6.0000    -0.2313     3.9188     3.9188     0.0000
  4 C      6.1304     6.0000    -0.1304     3.8785     3.8785     0.0000
  5 C      6.1543     6.0000    -0.1543     3.8877     3.8877     0.0000
  6 H      0.8670     1.0000     0.1330     0.9655     0.9655    -0.0000
  7 H      0.8675     1.0000     0.1325     0.9655     0.9655     0.0000
  8 H      0.8728     1.0000     0.1272     0.9727     0.9727    -0.0000
  9 H      0.8743     1.0000     0.1257     1.0049     1.0049    -0.0000
 10 H      0.8663     1.0000     0.1337     0.9667     0.9667    -0.0000
 11 C      6.1050     6.0000    -0.1050     3.9457     3.9457     0.0000
 12 N      7.5616     7.0000    -0.5616     2.8838     2.8838     0.0000
 13 H      0.8913     1.0000     0.1087     0.9536     0.9536     0.0000
 14 H      0.8832     1.0000     0.1168     0.9553     0.9553    -0.0000
 15 H      0.7571     1.0000     0.2429     0.9295     0.9295     0.0000
 16 H      0.7618     1.0000     0.2382     0.9341     0.9341     0.0000

  Mayer bond orders larger than 0.100000
B(  0-C ,  1-C ) :   1.4160 B(  0-C ,  5-C ) :   1.3863 B(  0-C ,  6-H ) :   0.9762 
B(  1-C ,  2-C ) :   1.3416 B(  1-C ,  8-H ) :   0.9815 B(  2-C ,  3-C ) :   1.3456 
B(  2-C , 11-C ) :   0.9493 B(  2-C , 12-N ) :  -0.1062 B(  3-C ,  4-C ) :   1.4068 
B(  3-C ,  9-H ) :   0.9649 B(  4-C ,  5-C ) :   1.4004 B(  4-C , 10-H ) :   0.9746 
B(  5-C ,  7-H ) :   0.9716 B( 11-C , 12-N ) :   1.0579 B( 11-C , 13-H ) :   0.9873 
B( 11-C , 14-H ) :   0.9402 B( 12-N , 15-H ) :   0.9168 B( 12-N , 16-H ) :   0.9238 


-------
TIMINGS
-------

Total SCF time: 0 days 0 hours 3 min 1 sec 

Total time                  ....     181.942 sec
Sum of individual times     ....     159.971 sec  ( 87.9%)

Fock matrix formation       ....      82.992 sec  ( 45.6%)
  Split-RI-J                ....      23.682 sec  ( 28.5% of F)
  Chain of spheres X        ....      12.963 sec  ( 15.6% of F)
  XC integration            ....       9.843 sec  ( 11.9% of F)
    Basis function eval.    ....       0.456 sec  (  4.6% of XC)
    Density eval.           ....       0.468 sec  (  4.8% of XC)
    XC-Functional eval.     ....       0.083 sec  (  0.8% of XC)
    XC-Potential eval.      ....       0.532 sec  (  5.4% of XC)
Diagonalization             ....      18.438 sec  ( 10.1%)
Density matrix formation    ....       3.735 sec  (  2.1%)
Population analysis         ....       2.728 sec  (  1.5%)
Initial guess               ....       4.246 sec  (  2.3%)
Orbital Transformation      ....       0.000 sec  (  0.0%)
Orbital Orthonormalization  ....       0.000 sec  (  0.0%)
DIIS solution               ....      24.906 sec  ( 13.7%)
SOSCF solution              ....      11.933 sec  (  6.6%)
Grid generation             ....      10.992 sec  (  6.0%)

Maximum memory used throughout the entire SCF-calculation: 78.2 MB


-------------------------------------------------------------------------------
                          DFT DISPERSION CORRECTION                            
                                                                               
                              DFTD3 V3.1  Rev 1                                
                          USING Becke-Johnson damping                          
-------------------------------------------------------------------------------
The B3LYP functional is recognized
Active option DFTDOPT                   ...         4   

molecular C6(AA) [au] = 2933.001319 


            DFT-D V3
 parameters
 s6 scaling factor         :     1.0000 
 a1 scaling factor         :     0.3981 
 s8 scaling factor         :     1.9889 
 a2 scaling factor         :     4.4211 
 ad hoc parameters k1-k3   :    16.0000     1.3333    -4.0000 

 Edisp/kcal,au: -17.650848153129  -0.028128413992 
 E6   /kcal   :  -8.309364966 
 E8   /kcal   :  -9.341483187 
 % E8         :  52.923707157 

-------------------------   ----------------
Dispersion correction           -0.028128414
-------------------------   ----------------


-------------------------   --------------------
FINAL SINGLE POINT ENERGY      -326.855011745202
-------------------------   --------------------



           ************************************************************
           *        Program running with 32 parallel MPI-processes    *
           *              working on a shared directory               *
           ************************************************************
------------------------------------------------------------------------------
                         ORCA SCF GRADIENT CALCULATION
------------------------------------------------------------------------------

 ... reading COSX grid (gridx3)
Gradient of the Kohn-Sham DFT energy:
Kohn-Sham wavefunction type      ... RKS
Hartree-Fock exchange scaling    ...    0.200
Number of operators              ...    1
Number of atoms                  ...   17
Basis set dimensions             ...  302
Integral neglect threshold       ... 2.5e-11
Integral primitive cutoff        ... 2.5e-12
SHARK Integral package           ... ON

Nuc. rep. gradient       (SHARK) ... done (  0.0 sec)
HCore & Overlap gradient (SHARK) ... done (  1.2 sec)
RI-J gradient            (SHARK) ... done (  1.4 sec)
COSX-gradient                    ... done (  2.9 sec)
Exchange-correlation gradient    ... done
Dispersion correction            ... done

------------------
CARTESIAN GRADIENT
------------------

   1   C   :   -0.006640457   -0.001178422   -0.003614005
   2   C   :    0.004344743    0.006851989   -0.008424396
   3   C   :    0.005077899    0.004054605   -0.002396387
   4   C   :    0.004815133   -0.003630645    0.008879029
   5   C   :   -0.000105237   -0.004642142    0.007637995
   6   C   :   -0.003086936   -0.000901319   -0.001195715
   7   H   :    0.000029781   -0.000189712    0.000438900
   8   H   :    0.000349955    0.000104027    0.000000336
   9   H   :   -0.001628648   -0.000796355   -0.000277167
  10   H   :   -0.002425549   -0.002142782    0.002367803
  11   H   :   -0.000372016    0.000001502   -0.000417565
  12   C   :   -0.001682353   -0.006076342    0.001941877
  13   N   :   -0.014100073   -0.013948162   -0.012542993
  14   H   :    0.002203669    0.009766281    0.006482697
  15   H   :    0.004017305   -0.005552645   -0.009549157
  16   H   :   -0.011366961    0.008439832    0.018904747
  17   H   :    0.020723927    0.009796536   -0.008282380

Difference to translation invariance:
           :    0.0001541825   -0.0000437536   -0.0000463827

Difference to rotation invariance:
           :   -0.0001682531    0.0012466799    0.0002461103

Norm of the cartesian gradient     ...    0.0499681532
RMS gradient                       ...    0.0069969410
MAX gradient                       ...    0.0207239274

-------
TIMINGS
-------

Total SCF gradient time            ...       10.087 sec

One electron gradient       ....       1.156 sec  ( 11.5%)
RI-J Coulomb gradient       ....       1.418 sec  ( 14.1%)
COSX gradient               ....       2.911 sec  ( 28.9%)
XC gradient                 ....       0.991 sec  (  9.8%)
CPCM gradient               ....       0.322 sec  (  3.2%)
   A-Matrix (El+Nuc)        ....       0.093 sec  (  0.9%)
   Potential                ....       0.229 sec  (  2.3%)

Maximum memory used throughout the entire SCFGRAD-calculation: 51.0 MB
------------------------------------------------------------------------------
                         ORCA GEOMETRY RELAXATION STEP
------------------------------------------------------------------------------

Reading the OPT-File                    .... done
Getting information on internals        .... done
Copying old internal coords+grads       .... done
Making the new internal coordinates     .... (new redundants).... done
Validating the new internal coordinates .... (new redundants).... done
Calculating the B-matrix                .... done
Calculating the G,G- and P matrices     .... done
Transforming gradient to internals      .... done
Projecting the internal gradient        .... done
Number of atoms                         ....  17
[...]
     29       0.141074  -0.027280   0.153488  -0.050487   0.036314   0.172689
     30       0.348538   0.000242  -0.483531   0.173825   0.067978   0.210807
     31      -0.053522   0.010575  -0.050354   0.120881  -0.004291  -0.041986
     32       0.155565  -0.007338  -0.097224  -0.062128   0.023681   0.102985
     33       0.007258  -0.066061   0.028910   0.018887  -0.002431   0.032113
     34      -0.011209   0.007434   0.016504  -0.012970  -0.019378   0.025607
     35       0.039733   0.056205   0.004406   0.020427   0.012874  -0.010800
     36       0.001109   0.001809  -0.004276   0.007193  -0.020601   0.013435
     37      -0.001332   0.005061  -0.002737   0.011277  -0.058883   0.039924
     38       0.004481   0.007103   0.000565   0.007951  -0.036593   0.027536
     39      -0.082532   0.558159   0.088400  -0.202202   0.023547  -0.015104
     40      -0.199119  -0.391619  -0.047071  -0.073384   0.017954  -0.020778
     41      -0.100159  -0.200122  -0.035898  -0.039730   0.043858  -0.047171
     42       0.113412   0.143546   0.026876   0.092343   0.015834   0.010501
     43       0.107669   0.249562   0.022756   0.063871   0.004237   0.004965
     44      -0.141706  -0.624737  -0.096571   0.025229  -0.043463   0.022280
     45      -0.008799  -0.028366   0.039447  -0.113438   0.541393  -0.357901
     46      -0.008132  -0.016867   0.032983  -0.090463   0.414677  -0.272680
     47      -0.014178  -0.022117   0.022658  -0.040539   0.156074  -0.099320
     48       0.001748   0.006200  -0.016422   0.050366  -0.239151   0.159729
     49      -0.006250  -0.012699   0.026585  -0.118017   0.599215  -0.405709
     50      -0.007070   0.002527  -0.017088  -0.042718   0.229213  -0.173479
                 42         43         44         45         46         47    
      0      -0.000287  -0.000005  -0.029737   0.000158   0.026280   0.041509
      1       0.000024  -0.000230   0.014819  -0.001133  -0.009571  -0.018073
      2      -0.000096   0.000170  -0.023041   0.001127   0.017001   0.029662
      3       0.000580   0.000037  -0.009040   0.004791  -0.005128  -0.005331
      4       0.001178   0.000343  -0.049837   0.022510  -0.025105  -0.017194
      5      -0.001031  -0.000561   0.044891  -0.020083   0.022437   0.014833
      6       0.001169   0.000490  -0.002279   0.000029  -0.001998  -0.000466
      7      -0.000847  -0.000776  -0.000234  -0.001088  -0.000897   0.001455
      8       0.000982   0.000692  -0.000411   0.001035   0.000281  -0.001517
      9       0.000293  -0.000984  -0.007729  -0.042991  -0.035494   0.030093
     10       0.000184   0.000258   0.004302   0.020013   0.016280  -0.011799
     11      -0.000093  -0.000127  -0.006413  -0.032066  -0.026225   0.020348
     12       0.000120   0.000411  -0.002547  -0.006232   0.003752  -0.009497
     13      -0.000166   0.000147  -0.013323  -0.036020   0.005603  -0.039275
     14       0.000228   0.000065   0.011828   0.032172  -0.004211   0.034337
     15      -0.000088  -0.000051   0.020405   0.021679  -0.049759   0.004888
     16       0.000057   0.000200   0.008860   0.010019  -0.021351   0.004949
     17      -0.000071  -0.000199  -0.002254  -0.003022   0.005299  -0.003217
     18      -0.000527  -0.001339   0.366432  -0.010372  -0.289455  -0.466169
     19      -0.000129   0.000792  -0.168021   0.005972   0.128254   0.210185
     20       0.000099  -0.001181   0.269844  -0.008667  -0.209054  -0.340139
     21       0.000186  -0.000886  -0.245596  -0.261028   0.578345  -0.068556
     22       0.000318  -0.000403  -0.107626  -0.114929   0.252994  -0.033646
     23      -0.000112  -0.000184   0.028334   0.030656  -0.066160   0.011304
     24      -0.004927  -0.001538   0.117003  -0.053246   0.057486   0.040689
     25      -0.011410  -0.002352   0.581077  -0.260663   0.282652   0.188825
     26       0.009489   0.002223  -0.520548   0.233198  -0.253094  -0.168313
     27      -0.003481   0.007510   0.096501   0.509345   0.409111  -0.325656
     28       0.002073  -0.002624  -0.044273  -0.228284  -0.183499   0.143501
     29      -0.002779   0.002870   0.071494   0.373156   0.299699  -0.236190
     30      -0.000390   0.000264   0.031226   0.083671  -0.015844   0.090251
     31       0.000919   0.000374   0.158618   0.428032  -0.064173   0.444733
     32      -0.000978  -0.000507  -0.140705  -0.379605   0.056055  -0.393744
     33      -0.016564   0.054461  -0.000152  -0.000343  -0.000420   0.000202
     34      -0.031905  -0.067713  -0.000557   0.000627  -0.000098  -0.000349
     35       0.065751   0.009226   0.000785  -0.000418   0.000388   0.000313
     36       0.000945  -0.001391   0.000120   0.000009   0.000159  -0.000012
     37       0.001361   0.001040   0.000045  -0.000058   0.000039   0.000016
     38       0.001663  -0.000183   0.000022   0.000086   0.000070  -0.000055
     39       0.025428   0.018539   0.002806  -0.000359   0.002260  -0.000292
     40       0.534197   0.106945   0.007567  -0.002778   0.004400   0.000961
     41      -0.809294  -0.177315  -0.010920   0.003730  -0.006415  -0.001435
     42       0.149441  -0.666416   0.000901   0.005115   0.004675  -0.001960
     43      -0.175105   0.706959   0.000198  -0.004271  -0.002536   0.001694
     44      -0.000727   0.067650  -0.000773  -0.000429  -0.000912   0.000164
     45       0.005965   0.016089  -0.000204  -0.000130  -0.000098  -0.000033
     46       0.001720  -0.017080   0.000274  -0.000058  -0.000077   0.000124
     47      -0.002809   0.002137   0.000273  -0.000081   0.000113   0.000047
     48      -0.008741  -0.000630  -0.000418  -0.000147  -0.000764   0.000304
     49       0.003551   0.000473   0.000167  -0.000115   0.000148   0.000083
     50       0.001505  -0.003548   0.000210   0.000104   0.000419  -0.000041
                 48         49         50    
      0      -0.032405  -0.000028   0.000026
      1       0.016243  -0.000055   0.000008
      2      -0.025197   0.000037  -0.000035
      3       0.003853   0.000050  -0.000119
      4       0.011873  -0.000077   0.000061
      5      -0.010187   0.000015  -0.000035
      6       0.001009   0.000038  -0.000247
      7       0.000510   0.000025   0.000039
      8      -0.000199  -0.000149  -0.000000
      9       0.016762  -0.000085  -0.000005
     10      -0.005976   0.000003  -0.000071
     11       0.010761  -0.000056   0.000096
     12      -0.005237   0.000056   0.000019
     13      -0.033130   0.000034  -0.000010
     14       0.029800  -0.000026   0.000002
     15      -0.053891  -0.000048  -0.000002
     16      -0.023641   0.000020  -0.000007
     17       0.006242  -0.000036   0.000009
     18       0.367553  -0.000170   0.000057
     19      -0.168552   0.000071  -0.000041
     20       0.270864  -0.000056   0.000010
     21       0.597236   0.000039   0.000057
     22       0.261724   0.000064   0.000063
     23      -0.068836   0.000026   0.000031
     24      -0.027853  -0.000128  -0.000115
     25      -0.126848   0.000017  -0.000412
     26       0.112986   0.000109   0.000554
     27      -0.172823   0.000382  -0.000363
     28       0.075250  -0.000057   0.000166
     29      -0.124388   0.000435  -0.000294
     30       0.070579  -0.000036   0.000057
     31       0.365812  -0.000189   0.000098
     32      -0.324922   0.000209  -0.000116
     33       0.000316   0.000776   0.001526
     34       0.000030  -0.001951  -0.001177
     35      -0.000186   0.002634  -0.000460
     36      -0.000123  -0.011321   0.078457
     37      -0.000040  -0.055421  -0.017479
     38      -0.000045  -0.002686  -0.009002
     39      -0.001253   0.001149  -0.000461
     40      -0.002519   0.008381   0.000137
     41       0.003329  -0.005232  -0.000189
     42      -0.003119  -0.009641  -0.010491
     43       0.002022   0.009746   0.011956
     44       0.000353  -0.000458   0.001754
     45       0.000094  -0.481580  -0.426266
     46       0.000024   0.541770   0.527393
     47       0.000018   0.072960   0.051615
     48       0.000536   0.638252  -0.666989
     49      -0.000145   0.234163  -0.282699
     50      -0.000248  -0.059491   0.076774


-----------
IR SPECTRUM
-----------

 Mode   freq       eps      Int      T**2         TX        TY        TZ
       cm**-1   L/(mol*cm) km/mol    a.u.
----------------------------------------------------------------------------
  6:     34.67   0.000536    2.71  0.004827  (-0.001223 -0.053062 -0.044836)
  7:    140.74   0.001261    6.37  0.002796  (-0.021850  0.034355  0.033736)
  8:    244.64   0.013567   68.56  0.017306  (-0.130141  0.019180 -0.001068)
  9:    304.79   0.000244    1.23  0.000250  (-0.013742  0.006781 -0.003903)
 10:    373.85   0.003232   16.33  0.002697  ( 0.047228  0.013029  0.017240)
 11:    415.16   0.000021    0.10  0.000015  (-0.003111  0.002109  0.001136)
 12:    497.27   0.001640    8.29  0.001029  (-0.002801  0.024646  0.020346)
 13:    590.12   0.002957   14.94  0.001564  (-0.036857  0.013577  0.004581)
 14:    636.94   0.000041    0.21  0.000020  (-0.001649  0.004153 -0.000446)
 15:    714.47   0.014720   74.39  0.006429  (-0.017849  0.055636  0.054914)
 16:    767.63   0.012285   62.08  0.004994  (-0.004152  0.041895  0.056759)
 17:    802.65   0.008335   42.12  0.003241  ( 0.006803  0.012440  0.055133)
 18:    858.71   0.004232   21.39  0.001538  (-0.005576  0.002489 -0.038740)
 19:    861.13   0.022159  111.98  0.008030  (-0.009689  0.007770 -0.088747)
 20:    934.81   0.000787    3.98  0.000263  ( 0.000723 -0.016152  0.001200)
 21:    975.89   0.000059    0.30  0.000019  ( 0.000290 -0.000835  0.004245)
 22:    991.40   0.009423   47.62  0.002966  (-0.005176  0.009421 -0.053389)
 23:    996.38   0.000872    4.41  0.000273  (-0.000859  0.007959 -0.014463)
 24:   1021.73   0.000412    2.08  0.000126  (-0.007680 -0.006384 -0.005098)
 25:   1035.30   0.003732   18.86  0.001125  (-0.019381 -0.027115  0.003769)
 26:   1052.06   0.000599    3.03  0.000178  ( 0.012992 -0.001626 -0.002513)
 27:   1102.91   0.000779    3.94  0.000220  ( 0.007889 -0.011756  0.004464)
 28:   1164.55   0.000353    1.78  0.000095  (-0.003131  0.001947 -0.009001)
 29:   1175.76   0.000014    0.07  0.000004  ( 0.001498  0.001187  0.000306)
 30:   1195.56   0.000010    0.05  0.000003  ( 0.001574  0.000287 -0.000028)
 31:   1234.55   0.000848    4.29  0.000214  (-0.008351 -0.011118  0.004586)
 32:   1289.46   0.000903    4.56  0.000219  ( 0.000760  0.014762  0.000081)
 33:   1342.26   0.000107    0.54  0.000025  (-0.003166  0.003659  0.001176)
 34:   1363.02   0.000234    1.18  0.000053  ( 0.004684  0.001236 -0.005477)
 35:   1415.90   0.005716   28.88  0.001260  (-0.027486 -0.021565 -0.006260)
 36:   1485.32   0.002051   10.37  0.000431  ( 0.006938 -0.010653  0.016411)
 37:   1506.13   0.000419    2.12  0.000087  ( 0.006155  0.000566 -0.006977)
 38:   1529.24   0.002055   10.39  0.000419  (-0.019691 -0.005365  0.001689)
 39:   1623.12   0.000088    0.45  0.000017  (-0.003920 -0.000239 -0.001245)
 40:   1631.39   0.006931   35.03  0.001326  ( 0.002213  0.036275  0.002251)
 41:   1644.94   0.001973    9.97  0.000374  (-0.009640 -0.016773  0.000275)
 42:   2981.41   0.020489  103.54  0.002145  (-0.011109 -0.008364  0.044172)
 43:   3048.56   0.007297   36.88  0.000747  ( 0.019452 -0.019161  0.001211)
 44:   3158.90   0.001722    8.70  0.000170  (-0.007920 -0.008402  0.006067)
 45:   3163.15   0.000458    2.31  0.000045  (-0.004793  0.002819 -0.003775)
 46:   3171.98   0.002265   11.44  0.000223  (-0.012543 -0.007031  0.004003)
 47:   3179.57   0.008359   42.24  0.000820  ( 0.012352 -0.016923  0.019530)
 48:   3189.89   0.003160   15.97  0.000309  (-0.015655 -0.007783  0.001871)
 49:   3464.64   0.000062    0.31  0.000006  (-0.002316  0.000390  0.000212)
 50:   3537.83   0.000470    2.37  0.000041  (-0.005574  0.003030  0.001090)

* The epsilon (eps) is given for a Dirac delta lineshape.
** The dipole moment derivative (T) already includes vibrational overlap.

The first frequency considered to be a vibration is 6
The total number of vibrations considered is 45


--------------------------
THERMOCHEMISTRY AT 298.15K
--------------------------

Temperature         ... 298.15 K
Pressure            ... 1.00 atm
Total Mass          ... 107.16 AMU

Throughout the following assumptions are being made:
  (1) The electronic state is orbitally nondegenerate
  (2) There are no thermally accessible electronically excited states
  (3) Hindered rotations indicated by low frequency modes are not
      treated as such but are treated as vibrations and this may
      cause some error
  (4) All equations used are the standard statistical mechanics
      equations for an ideal gas
  (5) All vibrations are strictly harmonic

freq.      34.67  E(vib)   ...       0.54 
freq.     140.74  E(vib)   ...       0.41 
freq.     244.64  E(vib)   ...       0.31 
freq.     304.79  E(vib)   ...       0.26 
freq.     373.85  E(vib)   ...       0.21 
freq.     415.16  E(vib)   ...       0.19 
freq.     497.27  E(vib)   ...       0.14 
freq.     590.12  E(vib)   ...       0.10 
freq.     636.94  E(vib)   ...       0.09 
freq.     714.47  E(vib)   ...       0.07 
freq.     767.63  E(vib)   ...       0.06 
freq.     802.65  E(vib)   ...       0.05 
freq.     858.71  E(vib)   ...       0.04 
freq.     861.13  E(vib)   ...       0.04 
freq.     934.81  E(vib)   ...       0.03 
freq.     975.89  E(vib)   ...       0.03 
freq.     991.40  E(vib)   ...       0.02 
freq.     996.38  E(vib)   ...       0.02 
freq.    1021.73  E(vib)   ...       0.02 
freq.    1035.30  E(vib)   ...       0.02 
freq.    1052.06  E(vib)   ...       0.02 
freq.    1102.91  E(vib)   ...       0.02 
freq.    1164.55  E(vib)   ...       0.01 
freq.    1175.76  E(vib)   ...       0.01 
freq.    1195.56  E(vib)   ...       0.01 
freq.    1234.55  E(vib)   ...       0.01 
freq.    1289.46  E(vib)   ...       0.01 
freq.    1342.26  E(vib)   ...       0.01 
freq.    1363.02  E(vib)   ...       0.01 
freq.    1415.90  E(vib)   ...       0.00 
freq.    1485.32  E(vib)   ...       0.00 
freq.    1506.13  E(vib)   ...       0.00 
freq.    1529.24  E(vib)   ...       0.00 
freq.    1623.12  E(vib)   ...       0.00 
freq.    1631.39  E(vib)   ...       0.00 
freq.    1644.94  E(vib)   ...       0.00 
freq.    2981.41  E(vib)   ...       0.00 
freq.    3048.56  E(vib)   ...       0.00 
freq.    3158.90  E(vib)   ...       0.00 
freq.    3163.15  E(vib)   ...       0.00 
freq.    3171.98  E(vib)   ...       0.00 
freq.    3179.57  E(vib)   ...       0.00 
freq.    3189.89  E(vib)   ...       0.00 
freq.    3464.64  E(vib)   ...       0.00 
freq.    3537.83  E(vib)   ...       0.00 

------------
INNER ENERGY
------------

The inner energy is: U= E(el) + E(ZPE) + E(vib) + E(rot) + E(trans)
    E(el)   - is the total energy from the electronic structure calculation
              = E(kin-el) + E(nuc-el) + E(el-el) + E(nuc-nuc)
    E(ZPE)  - the the zero temperature vibrational energy from the frequency calculation
    E(vib)  - the the finite temperature correction to E(ZPE) due to population
              of excited vibrational states
    E(rot)  - is the rotational thermal energy
    E(trans)- is the translational thermal energy

Summary of contributions to the inner energy U:
Electronic energy                ...   -326.85894620 Eh
Zero point energy                ...      0.14546185 Eh      91.28 kcal/mol
Thermal vibrational correction   ...      0.00440975 Eh       2.77 kcal/mol
Thermal rotational correction    ...      0.00141627 Eh       0.89 kcal/mol
Thermal translational correction ...      0.00141627 Eh       0.89 kcal/mol
-----------------------------------------------------------------------
Total thermal energy                   -326.70624205 Eh


Summary of corrections to the electronic energy:
(perhaps to be used in another calculation)
Total thermal correction                  0.00724229 Eh       4.54 kcal/mol
Non-thermal (ZPE) correction              0.14546185 Eh      91.28 kcal/mol
-----------------------------------------------------------------------
Total correction                          0.15270415 Eh      95.82 kcal/mol


--------
ENTHALPY
--------

The enthalpy is H = U + kB*T
                kB is Boltzmann's constant
Total free energy                 ...   -326.70624205 Eh 
Thermal Enthalpy correction       ...      0.00094421 Eh       0.59 kcal/mol
-----------------------------------------------------------------------
Total Enthalpy                    ...   -326.70529785 Eh


Note: Only C1 symmetry has been detected, increase convergence thresholds 
      if your molecule has a higher symmetry. Symmetry factor of 1.0 is   
      used for the rotational entropy correction. 
 

Note: Rotational entropy computed according to Herzberg 
Infrared and Raman Spectra, Chapter V,1, Van Nostrand Reinhold, 1945 
Point Group:  C1, Symmetry Number:   1  
Rotational constants in cm-1:     0.156252     0.048959     0.040287 

Vibrational entropy computed according to the QRRHO of S. Grimme
Chem.Eur.J. 2012 18 9955


-------
ENTROPY
-------

The entropy contributions are T*S = T*(S(el)+S(vib)+S(rot)+S(trans))
     S(el)   - electronic entropy
     S(vib)  - vibrational entropy
     S(rot)  - rotational entropy
     S(trans)- translational entropy
The entropies will be listed as multiplied by the temperature to get
units of energy

Electronic entropy                ...      0.00000000 Eh      0.00 kcal/mol
Vibrational entropy               ...      0.00733258 Eh      4.60 kcal/mol
Rotational entropy                ...      0.01332757 Eh      8.36 kcal/mol
Translational entropy             ...      0.01896913 Eh     11.90 kcal/mol
-----------------------------------------------------------------------
Final entropy term                ...      0.03962927 Eh     24.87 kcal/mol

In case the symmetry of your molecule has not been determined correctly
or in case you have a reason to use a different symmetry number we print 
out the resulting rotational entropy values for sn=1,12 :
 --------------------------------------------------------
|  sn= 1 | S(rot)=       0.01332757 Eh      8.36 kcal/mol|
|  sn= 2 | S(rot)=       0.01267311 Eh      7.95 kcal/mol|
|  sn= 3 | S(rot)=       0.01229028 Eh      7.71 kcal/mol|
|  sn= 4 | S(rot)=       0.01201866 Eh      7.54 kcal/mol|
|  sn= 5 | S(rot)=       0.01180797 Eh      7.41 kcal/mol|
|  sn= 6 | S(rot)=       0.01163582 Eh      7.30 kcal/mol|
|  sn= 7 | S(rot)=       0.01149028 Eh      7.21 kcal/mol|
|  sn= 8 | S(rot)=       0.01136420 Eh      7.13 kcal/mol|
|  sn= 9 | S(rot)=       0.01125299 Eh      7.06 kcal/mol|
|  sn=10 | S(rot)=       0.01115351 Eh      7.00 kcal/mol|
|  sn=11 | S(rot)=       0.01106352 Eh      6.94 kcal/mol|
|  sn=12 | S(rot)=       0.01098137 Eh      6.89 kcal/mol|
 --------------------------------------------------------


-------------------
GIBBS FREE ENERGY
-------------------

The Gibbs free energy is G = H - T*S

Total enthalpy                    ...   -326.70529785 Eh 
Total entropy correction          ...     -0.03962927 Eh    -24.87 kcal/mol
-----------------------------------------------------------------------
Final Gibbs free energy         ...   -326.74492712 Eh

For completeness - the Gibbs free energy minus the electronic energy
G-E(el)                           ...      0.11401908 Eh     71.55 kcal/mol


Timings for individual modules:

Sum of individual times         ...     3936.008 sec (=  65.600 min)
GTO integral calculation        ...      253.412 sec (=   4.224 min)   6.4 %
SCF iterations                  ...     2674.117 sec (=  44.569 min)  67.9 %
SCF Gradient evaluation         ...      391.691 sec (=   6.528 min)  10.0 %
Geometry relaxation             ...        1.317 sec (=   0.022 min)   0.0 %
Analytical frequency calculation...      615.472 sec (=  10.258 min)  15.6 %
                             ****ORCA TERMINATED NORMALLY****
TOTAL RUN TIME: 0 days 1 hours 8 minutes 50 seconds 276 msec
